ITEM: TIMESTEP
0
ITEM: NUMBER OF ATOMS
422
ITEM: BOX BOUNDS ff ff ff
0.0000000000000000e+00 2.3200000000000000e+02
0.0000000000000000e+00 2.3200000000000000e+02
0.0000000000000000e+00 2.3200000000000000e+02
ITEM: ATOMS id xu yu zu fx fy fz
1        113.145932193839        114.983520815677              108.656854     -0.0208719486655782      0.0257576408209352      0.0607563818595247
2        118.827484840071        114.989226241634              108.656854      0.0178547785556053      0.0264766390348753      0.0626652031257672
3        117.402344993917        114.987795112765              108.656854     -0.0152282545804084       0.033569730267647      0.0780153570772312
4        114.571072038949        114.984951942936              108.656854      0.0207407393433343      0.0342668679587754      0.0804431650768444
5        116.701075167769        113.749724850164              108.656854      -0.026056266894324   -0.000446065345246438       0.057382091714594
6        115.274826990867        113.748292608712              108.656854      0.0345455485787954   -0.000724154420320477      0.0602089488779463
7        115.272341865028        116.223022205388              108.656854     0.00676270757678066   -0.000315587666669725     0.00586670451689344
8        116.698590041422        116.224454446583              108.656854     0.00104014944031189   -0.000170205759728731     0.00531336214473014
9        114.517756920757        112.548446241175              108.656854      0.0100303666581418      -0.035088669330705      0.0356793969447586
10        117.460553482731        112.551401403886              108.656854     -0.0287786831999618     -0.0350077529857265      0.0361154964171903
11        114.512863550773        117.421345651893              108.656854      0.0279459043608327     -0.0480790249632457       0.145016010539044
12        117.455660110655        117.424300814179              108.656854     -0.0473501762095667     -0.0470738666130453       0.142995514080293
13        113.127311260236        112.562444587898              108.656854    -0.00344032997346522     -0.0298075547316825      0.0205972688983131
14        113.122448808114        117.404554762274              108.656854     -0.0255440990029572     -0.0350660949060333      0.0975142435350839
15        118.850968226168        112.568192293572              108.656854     -0.0123748824588041     -0.0306434715374014      0.0238124863321345
16        118.846105771496         117.41030247058              108.656854     0.00989486745199417     -0.0353033269530352       0.103792697855434
17        112.426795838139         116.19431994364              108.656854     0.00314220338353653     0.00665665320663772     0.00445183877588423
18         112.42922905874        113.771279815063              108.656854     -0.0151620575723124   -0.000884222890333769      0.0339357632100225
19        119.546621196692        113.778427112272              108.656854      0.0261588153546259    -0.00092852126933915      0.0343543269679275
20        119.544187975028         116.20146724296              108.656854     0.00684536298531342     0.00628554960677744     0.00328150548501206
21        120.955135022624        113.824435085822              108.656854       0.119472083987075       0.148393167281519       0.044550264744219
22        120.952791362251        116.158288229576              108.656854       0.151155331609161       -0.03597897129903      0.0312060245407818
23        111.020625673161        113.814458829493              108.656854    -0.00104915947374745       0.148019962286468       0.069643409000924
24        111.018282013145        116.148311972274              108.656854     -0.0333009633078886     -0.0332872894495116      0.0530719771330388
25        121.586726460739        114.991997078118              108.656854     -0.0627844964301675      0.0102534937595963      0.0564927498713616
26        110.386690574472        114.980749978664              108.656854    -0.00391561170696597     0.00960845691881965      0.0440043692261899
27        121.609196045824        117.185922140926              108.656854      -0.171943208013666      -0.128175518386678       0.120943593025034
28          121.6136022867        112.798121569695              108.656854      -0.174100108798762      -0.121152418859497      0.0593021152911009
29        110.359814750727        117.174625487296              108.656854      0.0227427395140725      -0.135417424725418      0.0887885171800548
30         110.36422099026         112.78682491673              108.656854      0.0240904611908537      -0.118159536588639      0.0259808347261347
31        112.599866822243        111.615454800093              108.656854     -0.0160033322073468     0.00566550035099324      0.0169096837274785
32        112.593103500599        118.350483321209              108.656854      -0.017886885862733      0.0203420414432892    -0.00977943433623282
33        119.380313532952        111.622263734631              108.656854      0.0581850924308249     0.00688217329357254      0.0109744779464672
34        119.373550207142        118.357292260389              108.656854      0.0591834653152146      0.0185982789823374     -0.0155087188297493
35        114.962286572867         111.56896056388              108.656854     0.00430919691378134     0.00317736337713154    0.000629337796564522
36        114.955425108682        118.401722146141              108.656854     0.00783901256756714      0.0149756647617678     -0.0092464143200115
37        117.017991924022        111.571024909739              108.656854       0.022279069156795     0.00335113949599553   -0.000172231454932316
38        117.011130457531        118.403786490585              108.656854        0.01824797754206      0.0145269466740521     -0.0103101944412098
39                     100                     100              105.656854        0.21224201019405       0.214297433225868      -0.975600014769356
40                     100                     100              102.828427       0.431977057293555       0.430186110840085   -0.000496331949218341
41                     100                     100                     100       0.212145406694371       0.213600638972727       0.976434822117708
42                     102                     102              105.656854      -0.344630602996331      -0.348203870329675      -0.278166560813093
43                     102                     102              102.828427     -0.0508540655507791     -0.0478874212235899    0.000940920720628264
44                     102                     102                     100      -0.344460066569054      -0.346722317814076       0.276637034017631
45                     104                     100              105.656854      0.0955890075115403       0.960582738800996      -0.808824116068627
46                     104                     100              102.828427     -0.0635730504471307       0.726340961011522   -0.000428694446527866
47                     104                     100                     100      0.0959849661455507       0.959657154387688       0.809501694108298
48                     106                     102              105.656854      -0.148571544036125      -0.515882091759239      -0.381717391555684
49                     106                     102              102.828427        0.14174575747784      0.0671191243287334    0.000670412500977861
50                     106                     102                     100      -0.149764743701009      -0.514043691430745       0.380705904947974
51                     108                     100              105.656854       0.108781366593036        1.06033929098481       -0.80187644730838
52                     108                     100              102.828427      -0.110944780239512       0.639725146267206    0.000226637979231967
53                     108                     100                     100       0.110183912355914        1.06010039864411       0.801436150770785
54                     110                     102              105.656854       -0.14140604962892      -0.581823007954602       -0.37372656140734
55                     110                     102              102.828427       0.146738927671244       0.134735252257965    -0.00111203473571531
56                     110                     102                     100      -0.144818291652982      -0.582543696444779       0.375634509938495
57                     112                     100              105.656854       0.130741244582119        1.10764066594102      -0.810933440682531
58                     112                     100              102.828427      -0.134793047947038       0.589973124449959      0.0014979437666689
59                     112                     100                     100       0.132417982421618        1.10955922322979       0.808411965004417
60                     114                     102              105.656854      -0.162673392840896      -0.616543523695981      -0.360519536214827
61                     114                     102              102.828427       0.168019403924962       0.173564636265442    -0.00356883691595376
62                     114                     102                     100      -0.164878027353303       -0.62209474116764       0.366386976292897
63                     116                     100              105.656854       0.166590717675409        1.14243616677688      -0.821678441198426
64                     116                     100              102.828427      -0.170773346331857       0.553221125330695     0.00222704483944057
65                     116                     100                     100       0.166588352384029        1.14575774891761       0.817978139526553
66                     118                     102              105.656854      -0.210631306587143      -0.648750445743721      -0.347089081357006
67                     118                     102              102.828427       0.215074592753165       0.206815268379247    -0.00356444049597655
68                     118                     102                     100      -0.208418549253324      -0.654289456858315       0.352949362225378
69                     120                     100              105.656854        0.22413767377849        1.18172797352531      -0.835500519561631
70                     120                     100              102.828427       -0.22929516413737       0.513462953730345     0.00149615057685009
71                     120                     100                     100       0.222462487145212        1.18364117150911       0.832981948947748
72                     122                     102              105.656854       -0.29044002985423      -0.687998434121254      -0.330198262147205
73                     122                     102              102.828427       0.294691494321585       0.244303558680167    -0.00111010460554618
74                     122                     102                     100      -0.287040391955362      -0.688713084851438       0.332102952188816
75                     124                     100              105.656854       0.327092758128715        1.23698142151101      -0.852075010702385
76                     124                     100              102.828427      -0.323567105633258       0.459340879041614    0.000228311503985335
77                     124                     100                     100        0.32569587272311        1.23674486278595       0.851632130139607
78                     126                     102              105.656854      -0.462185196951785      -0.728673952859173      -0.332283647015183
79                     126                     102              102.828427       0.397664509074397       0.282292593231814     0.00066351681647663
80                     126                     102                     100      -0.460998824596471       -0.72684851746929       0.331282963257712
81                     128                     100              105.656854       0.708440275337782        1.34122565109893      -0.754625195787502
82                     128                     100              102.828427      -0.281096416371772       0.395724250795701   -0.000424220027644758
83                     128                     100                     100       0.708045642970364        1.34030702994268       0.755295596612934
84                     130                     102              105.656854       -1.34045632285618        -0.7093715954252      -0.755605837280299
85                     130                     102              102.828427       -0.39590730373271       0.281452592423565     0.00093303386906041
86                     130                     102                     100       -1.34062435324445      -0.707901439496101       0.754088915827283
87                     100                     104              105.656854       0.959528289563089        0.10053241813469      -0.808207582189156
88                     100                     104              102.828427       0.727409272452391     -0.0675637890297738    -0.00133753756308027
89                     100                     104                     100       0.958653234355388      0.0989153265628778        0.81040817989979
90                     102                     106              105.656854      -0.514795409640594      -0.158065411195504      -0.383377794934112
91                     102                     106              102.828427      0.0657120624213251       0.148731748096457     0.00283204464893335
92                     102                     106                     100      -0.512609025974106      -0.154370227480192       0.378839964590146
93                     104                     104              105.656854       0.247444277098931       0.254250525002891      -0.387985905527124
94                     104                     104              102.828427      -0.179969895853424      -0.185185431196805    -0.00190485398740788
95                     104                     104                     100       0.247200583950636       0.250817115024275       0.391000594225556
96                     106                     106              105.656854      -0.233544094784238      -0.248277333026428      -0.506389448420993
97                     106                     106              102.828427       0.224982407091672       0.234735999830721     0.00404507395607845
98                     106                     106                     100      -0.233721379153638      -0.239570820773609       0.499790517884971
99                     108                     104              105.656854       0.171326406784003       0.340446484248846      -0.374634598724672
100                     108                     104              102.828427       -0.17588644536115      -0.269569328989835   -0.000783323208209088
101                     108                     104                     100       0.175298867094395       0.336993897451655       0.375802863489032
102                     110                     106              105.656854      -0.175360091246557      -0.295536779717391      -0.490794997755587
103                     110                     106              102.828427       0.188870884649538       0.286311142296368   -0.000741286525477536
104                     110                     106                     100      -0.189374125693805       -0.29190168312557       0.491977436751114
105                     112                     104              105.656854        0.16309371507715       0.377444756143286      -0.391964380215408
106                     112                     104              102.828427      -0.171932353596675      -0.313542515118232     0.00406739433210359
107                     112                     104                     100       0.170655664062892       0.383023894178036        0.38517673738758
108                     114                     106              105.656854      -0.182836033713502      -0.299288432019557      -0.461280330500031
109                     114                     106              102.828427       0.195028252392272       0.309299578084176     -0.0119978060021223
110                     114                     106                     100      -0.194106682352299      -0.321575679209681       0.483188517161069
111                     116                     104              105.656854       0.198211878306277       0.400078786568158       -0.40884045726193
112                     116                     104              102.828427      -0.203410159894152      -0.341826430053046     0.00746476026411926
113                     116                     104                     100       0.198192820775082       0.413040148573996        0.39646247733467
114                     118                     106              105.656854      -0.246445468642716      -0.321586007702757      -0.445419378532445
115                     118                     106              102.828427       0.245822511697713       0.332229497913471     -0.0119657805854855
116                     118                     106                     100      -0.235107912127383      -0.343777933387101       0.467262272308672
117                     120                     104              105.656854       0.264314981392695       0.434144306890869      -0.422676075303733
118                     120                     104              102.828427       -0.26706015081352      -0.372064430515767     0.00405278873600545
119                     120                     104                     100       0.256764053300763        0.43968303153168       0.415913333661613
120                     122                     106              105.656854      -0.324808471702593      -0.365550063901502      -0.439028986968035
121                     122                     106              102.828427       0.323046951422646        0.35858579237507   -0.000727411614078149
122                     122                     106                     100      -0.310893773102277      -0.361881075303205       0.440188368805056
123                     124                     104              105.656854       0.369890297945454       0.465738429787898      -0.437964051721031
124                     124                     104              102.828427      -0.363770263221212      -0.398777094300224   -0.000776445215600503
125                     124                     104                     100       0.365946628668448       0.462303338849507       0.439120564664434
126                     126                     106              105.656854      -0.465684114518504      -0.372529342402701      -0.443276458391578
127                     126                     106              102.828427       0.401347043001198       0.362962164089103     0.00401375186468068
128                     126                     106                     100      -0.465516098317565      -0.363893139022528       0.436733648640471
129                     128                     104              105.656854       0.727727380498072       0.463729317495687      -0.330139046183472
130                     128                     104              102.828427       -0.28262602479802      -0.397863543267244    -0.00188900322258261
131                     128                     104                     100       0.727968396959942       0.460323398254225       0.333128645138381
132                     130                     106              105.656854       -1.23560799658712      -0.329308807381383      -0.854204466994995
133                     130                     106              102.828427      -0.459254266405066       0.324463356503517     0.00280887946557751
134                     130                     106                     100         -1.237774509755      -0.325644469630489       0.849703336596451
135                     100                     108              105.656854        1.06407712817291       0.116933124781633      -0.799520983673222
136                     100                     108              102.828427       0.637605993270263      -0.117070223835927    -0.00298888052146645
137                     100                     108                     100        1.06090008936984       0.114296014050812       0.804358824125386
138                     102                     110              105.656854      -0.592175300821774      -0.155631213165066      -0.380197559961811
139                     102                     110              102.828427       0.139692705274732       0.156243537688943     0.00640240024062711
140                     102                     110                     100       -0.58408831448468      -0.150438236588289       0.369888519879301
141                     104                     108              105.656854        0.34086332301872        0.19149588009564      -0.369171050061325
142                     104                     108              102.828427      -0.267874522028605      -0.188501479114772    -0.00645191412699435
143                     104                     108                     100       0.334844436034609       0.182403384181931       0.379728549735317
144                     106                     110              105.656854      -0.305183534643526      -0.221434716826133       -0.51385071852132
145                     106                     110              102.828427       0.284111267212955       0.210664941650556      0.0148994264483061
146                     106                     110                     100      -0.288317492160993      -0.199369486322485       0.484084429094213
147                     108                     108              105.656854       0.221536180302767       0.259821977173179      -0.351664408265369
148                     108                     108              102.828427      -0.227313808513886      -0.246150667186355    -0.00802372407770221
149                     108                     108                     100       0.227029303205836       0.236179698898599       0.369040179454236
150                     110                     110              105.656854      -0.159924610830812      -0.270264693743482       -0.51249097501854
151                     110                     110              102.828427       0.211083408534478       0.243849744227238     0.00870424710715348
152                     110                     110                     100      -0.220044927195648      -0.232627734867939       0.474812830335508
153                     112                     108              105.656854       0.159446759458198       0.254973401622871      -0.398312279593974
154                     112                     108              102.828427      -0.192845832477346      -0.268986507290712      0.0103764658867552
155                     112                     108                     100       0.199469217234646       0.267247433737205        0.37705118817418
156                     114                     110              105.656854      -0.164861301334293      -0.181539992385519      -0.348984128068803
157                     114                     110              102.828427       0.205134151236654       0.246982574062299     -0.0332332813900334
158                     114                     110                     100      -0.212176442593417      -0.249568408228411       0.472061730570813
159                     116                     108              105.656854        0.22032435345125       0.237752578955767      -0.442003206874105
160                     116                     108              102.828427      -0.226136501232143        -0.2795268126018      0.0261417310706568
161                     116                     108                     100       0.220196015350263       0.285687236123531       0.386459522108525
162                     118                     110              105.656854      -0.298367547895662      -0.192729402988536      -0.331987820199058
163                     118                     110              102.828427       0.270344767640952       0.258351660385103     -0.0330886536591019
164                     118                     110                     100      -0.250537905985928      -0.260544513205203       0.454668037208876
165                     120                     108              105.656854       0.315520825896316       0.288871919598742      -0.432902728199285
166                     120                     108              102.828427      -0.295347733258404      -0.303713175263692       0.010277068234984
167                     120                     108                     100       0.275587464848899        0.30085075851906       0.411889960477066
168                     122                     110              105.656854      -0.375856413937862      -0.304036588239022      -0.456102684632384
169                     122                     110              102.828427       0.338443913393025       0.278480273795618     0.00878871328081593
170                     122                     110                     100      -0.316700365626108      -0.266133384419027        0.41835680248118
171                     124                     108              105.656854       0.375249227744553        0.32928872792775      -0.424147070553311
172                     124                     108              102.828427      -0.369601688126939      -0.318044497422097    -0.00798398541276268
173                     124                     108                     100       0.369880341060252       0.305815743042578       0.441369377375615
174                     126                     110              105.656854      -0.430351730018341       -0.27717063546462      -0.442241998278146
175                     126                     110              102.828427       0.379510719758232       0.268376649537742      0.0147901921583636
176                     126                     110                     100      -0.447103255354238      -0.255284167485107       0.412789838038268
177                     128                     108              105.656854       0.685692334193244       0.295549032224725      -0.324502428543854
178                     128                     108              102.828427      -0.245902002094526      -0.296006163835732    -0.00639852451064584
179                     128                     108                     100        0.69165760603406        0.28653763751206       0.334965437557716
180                     130                     110              105.656854       -1.17734359874242      -0.227967026082837      -0.840152685092009
181                     130                     110              102.828427      -0.513792019275454       0.230988967376453     0.00635030188930305
182                     130                     110                     100       -1.18535678724276      -0.222814495254332       0.829929688209601
183                     100                     112              105.656854        1.11951780521498        0.13745813350441      -0.806003449407676
184                     100                     112              102.828427       0.582760152250129       -0.13964749607818      -0.004890287628315
185                     100                     112                     100        1.11304009257015       0.135519242224641       0.813868960203619
186                     102                     114              105.656854      -0.640244294019587       -0.16858589535749      -0.372007448453474
187                     102                     114              102.828427       0.185657530859218       0.171946904445003     0.00919461459162911
188                     102                     114                     100        -0.6268232884003      -0.167163983518735        0.35711290847144
189                     104                     112              105.656854       0.405506590465211       0.185340641251971      -0.372126539888071
190                     104                     112              102.828427      -0.323431209899301       -0.18463561156127     -0.0136122277476126
191                     104                     112                     100        0.38514551332331       0.177143439982815       0.395916161537764
192                     106                     114              105.656854      -0.356391706465496      -0.202404720185316      -0.518859714323852
193                     106                     114              102.828427       0.322273902847682       0.205604492140102      0.0247476162082715
194                     106                     114                     100        -0.3225127148199      -0.198957181646636       0.465949888836902
195                     108                     112              105.656854       0.294995818373004       0.242602126520302       -0.28007829073787
196                     108                     112              102.828427      -0.261088718653877      -0.221182268387862     -0.0257819325528049
197                     108                     112                     100       0.260639078447793       0.210637814561657       0.390313083217072
198                     110                     114              105.656854       -0.14382087092815       -0.17122340662386      -0.712372803143897
199                     110                     114              102.828427       0.221278738748331       0.225260739826457      0.0151271160476692
200                     110                     114                     100      -0.238779776893189       -0.22009969222047        0.45641293299853
201                     112                     112              105.656854      0.0714688925281602       0.216833041901216      -0.430988894615717