ITEM: TIMESTEP
0
ITEM: NUMBER OF ATOMS
422
ITEM: BOX BOUNDS ff ff ff
0.0000000000000000e+00 2.3200000000000000e+02
0.0000000000000000e+00 2.3200000000000000e+02
0.0000000000000000e+00 2.3200000000000000e+02
ITEM: ATOMS id xu yu zu fx fy fz
1        113.170783704167        116.008372326005        108.681705510328     -0.0052814607951642    -0.00105938592092709       -0.14180143429494
2        118.809646820361        115.971388221924        108.639015980289    -0.00358985072889241     0.00129352303378104       0.649427047875104
3        117.415873631791        116.001323750639        108.670382637874    -0.00236968082443207    -0.00187864517239146      -0.108505066735076
4        114.566307918703         115.98018782269        108.652089879754    -0.00367952914506788     0.00102158495976232       0.692977631795195
5        116.723196760739        114.771846443133         108.67897559297    0.000761431843068139    0.000574569959330428       0.108081023654923
6        115.310915240683        114.784380858528        108.692942249816     0.00456571037552263    -0.00391236250398022      -0.507248433200339
7        115.314573029786        117.265253370146        108.699085164758     0.00868311722772042     0.00928526830089078      -0.140575658105515
8        116.738796593358        117.264660998519        108.697060551937    -0.00173988747468229     -0.0011550448733044      -0.131374297035571
9        114.521368440562        113.552057760979        108.660465519804     -0.0010471041420701    -0.00148570179693227       0.396652382783772
10        117.477431955655         113.56827987681        108.673732472924    -0.00394182531058588     0.00134257867507688      -0.235140999828513
11        114.553318445536        118.461800546656        108.697308894763     -0.0103105275888456     -0.0124409247026487      -0.242292410739491
12         117.47683769698        118.445478400504        108.678031586325     -0.0016305746185255    -0.00273726248499947     -0.0734389173754735
13         113.15212613986        113.587259467522        108.681668879624    -0.00302929541788931     0.00018857806049096      -0.234583043333448
14        113.151315853886        118.433421808047        108.685721045773    -0.00169098469680581     0.00346412971614819       0.123700733796677
15        118.838325607232        113.555549674636        108.644211381064    -0.00041635599215659     0.00520006089804814        0.41909262644256
16        118.838981696053        118.403178395137        108.649729924557    -0.00026356500105804     0.00480969690454229        0.19332109101612
17         112.47274386032        117.240267965821        108.702802022181      0.0101436895757594    -0.00223166738000055      -0.446729686673142
18        112.440312463451        114.782363219774        108.667937404711     0.00541126964434385     0.00175858294077981     -0.0769336437129553
19        119.567416818894        114.799222734474        108.677649622202     0.00547399072642324    -0.00520290583925684      -0.361830505844591
20        119.570598704235        117.227877972167        108.683264729207     0.00612925298530971     0.00345418213243468      -0.470045135418592
21        120.993640545169        114.862940608367        108.695359522545    -0.00611337177349499     0.00865651784596159      -0.122872970322941
22        120.968908057546        117.174404924871        108.672970695295    2.08889211891392e-06    0.000836116442662215       0.212054464496594
23        110.996244511159         114.79007766749        108.632472837998   -0.000256684478828055   -0.000929161870846917       0.481025590609255
24        111.011763428993        117.141793388121        108.650335415848     -0.0090366684350749    0.000526644428545222       0.498867877417637
25        121.621196832721        116.026467450099        108.691324371981     0.00324286602806415    -0.00298875677528527      -0.132631107017591
26        110.396165596849        115.990225001042        108.666329022378    -0.00483694020689244     0.00165015188956041      -0.390433210432436
27        121.622504608771        118.199230703873        108.670162562947   -2.02875977998642e-07    2.79197867893412e-06    0.000971710855071555
28        121.595545108378        113.780064391373        108.638796821678     0.00337684693362594    -0.00549046510545632       0.141047608038889
29        110.396250020542         118.21106075711        108.693289269814     0.00146766073811533     0.00371133870421822     -0.0713567753595635
30        110.383969670262        113.806573596731        108.676602680002   -0.000383659737277661    -0.00435540009606769      -0.102390099843926
31        112.610192267074        112.625780244924        108.667179444831    0.000403116973145776   -0.000694532549400663      0.0310098964960542
32        112.597979757784        119.355359578394        108.661730257184    4.84305563594103e-05   -0.000142783412914645    -0.00660402619738885
33        119.417257424236        112.659207625915        108.693797891284     0.00125639888539095    -0.00748318549554395      -0.149937212250672
34        119.342240489371        119.325982542618        108.625544282229    -1.1296931231114e-05    0.000835408886165588      0.0316399909762284
35        114.994373318991        112.601047310004        108.688940746124     0.00146627524658526    -0.00210564582236861     -0.0946804249267186
36        114.937974387712        119.384271425171         108.63940327903     0.00653152902484312     0.00865837477882074       0.181320756313647
37        117.023595759453        112.576628745171        108.662457835432    0.000751127696596148    -0.00110333061607809      0.0668074798725549
38        117.020233409403        119.412889442457        108.665956951872   -8.53371780395144e-05    0.000127061882504683      0.0134071462086021
39                     100                     100              105.656854                       0                       0                       0
40                     100                     100              102.828427                       0                       0                       0
41                     100                     100                     100                       0                       0                       0
42                     102                     102              105.656854                       0                       0                       0
43                     102                     102              102.828427                       0                       0                       0
44                     102                     102                     100                       0                       0                       0
45                     104                     100              105.656854                       0                       0                       0
46                     104                     100              102.828427                       0                       0                       0
47                     104                     100                     100                       0                       0                       0
48                     106                     102              105.656854                       0                       0                       0
49                     106                     102              102.828427                       0                       0                       0
50                     106                     102                     100                       0                       0                       0
51                     108                     100              105.656854                       0                       0                       0
52                     108                     100              102.828427                       0                       0                       0
53                     108                     100                     100                       0                       0                       0
54                     110                     102              105.656854                       0                       0                       0
55                     110                     102              102.828427                       0                       0                       0
56                     110                     102                     100                       0                       0                       0
57                     112                     100              105.656854                       0                       0                       0
58                     112                     100              102.828427                       0                       0                       0
59                     112                     100                     100                       0                       0                       0
60                     114                     102              105.656854                       0                       0                       0
61                     114                     102              102.828427                       0                       0                       0
62                     114                     102                     100                       0                       0                       0
63                     116                     100              105.656854                       0                       0                       0
64                     116                     100              102.828427                       0                       0                       0
65                     116                     100                     100                       0                       0                       0
66                     118                     102              105.656854                       0                       0                       0
67                     118                     102              102.828427                       0                       0                       0
68                     118                     102                     100                       0                       0                       0
69                     120                     100              105.656854                       0                       0                       0
70                     120                     100              102.828427                       0                       0                       0
71                     120                     100                     100                       0                       0                       0
72                     122                     102              105.656854                       0                       0                       0
73                     122                     102              102.828427                       0                       0                       0
74                     122                     102                     100                       0                       0                       0
75                     124                     100              105.656854                       0                       0                       0
76                     124                     100              102.828427                       0                       0                       0
77                     124                     100                     100                       0                       0                       0
78                     126                     102              105.656854                       0                       0                       0
79                     126                     102              102.828427                       0                       0                       0
80                     126                     102                     100                       0                       0                       0
81                     128                     100              105.656854                       0                       0                       0
82                     128                     100              102.828427                       0                       0                       0
83                     128                     100                     100                       0                       0                       0
84                     130                     102              105.656854                       0                       0                       0
85                     130                     102              102.828427                       0                       0                       0
86                     130                     102                     100                       0                       0                       0
87                     100                     104              105.656854                       0                       0                       0
88                     100                     104              102.828427                       0                       0                       0
89                     100                     104                     100                       0                       0                       0
90                     102                     106              105.656854                       0                       0                       0
91                     102                     106              102.828427                       0                       0                       0
92                     102                     106                     100                       0                       0                       0
93                     104                     104              105.656854                       0                       0                       0
94                     104                     104              102.828427                       0                       0                       0
95                     104                     104                     100                       0                       0                       0
96                     106                     106              105.656854                       0                       0                       0
97                     106                     106              102.828427                       0                       0                       0
98                     106                     106                     100                       0                       0                       0
99                     108                     104              105.656854                       0                       0                       0
100                     108                     104              102.828427                       0                       0                       0
101                     108                     104                     100                       0                       0                       0
102                     110                     106              105.656854                       0                       0                       0
103                     110                     106              102.828427                       0                       0                       0
104                     110                     106                     100                       0                       0                       0
105                     112                     104              105.656854                       0                       0                       0
106                     112                     104              102.828427                       0                       0                       0
107                     112                     104                     100                       0                       0                       0
108                     114                     106              105.656854                       0                       0                       0
109                     114                     106              102.828427                       0                       0                       0
110                     114                     106                     100                       0                       0                       0
111                     116                     104              105.656854                       0                       0                       0
112                     116                     104              102.828427                       0                       0                       0
113                     116                     104                     100                       0                       0                       0
114                     118                     106              105.656854                       0                       0                       0
115                     118                     106              102.828427                       0                       0                       0
116                     118                     106                     100                       0                       0                       0
117                     120                     104              105.656854                       0                       0                       0
118                     120                     104              102.828427                       0                       0                       0
119                     120                     104                     100                       0                       0                       0
120                     122                     106              105.656854                       0                       0                       0
121                     122                     106              102.828427                       0                       0                       0
122                     122                     106                     100                       0                       0                       0
123                     124                     104              105.656854                       0                       0                       0
124                     124                     104              102.828427                       0                       0                       0
125                     124                     104                     100                       0                       0                       0
126                     126                     106              105.656854                       0                       0                       0
127                     126                     106              102.828427                       0                       0                       0
128                     126                     106                     100                       0                       0                       0
129                     128                     104              105.656854                       0                       0                       0
130                     128                     104              102.828427                       0                       0                       0
131                     128                     104                     100                       0                       0                       0
132                     130                     106              105.656854                       0                       0                       0
133                     130                     106              102.828427                       0                       0                       0
134                     130                     106                     100                       0                       0                       0
135                     100                     108              105.656854                       0                       0                       0
136                     100                     108              102.828427                       0                       0                       0
137                     100                     108                     100                       0                       0                       0
138                     102                     110              105.656854                       0                       0                       0
139                     102                     110              102.828427                       0                       0                       0
140                     102                     110                     100                       0                       0                       0
141                     104                     108              105.656854                       0                       0                       0
142                     104                     108              102.828427                       0                       0                       0
143                     104                     108                     100                       0                       0                       0
144                     106                     110              105.656854                       0                       0                       0
145                     106                     110              102.828427                       0                       0                       0
146                     106                     110                     100                       0                       0                       0
147                     108                     108              105.656854                       0                       0                       0
148                     108                     108              102.828427                       0                       0                       0
149                     108                     108                     100                       0                       0                       0
150                     110                     110              105.656854                       0                       0                       0
151                     110                     110              102.828427                       0                       0                       0
152                     110                     110                     100                       0                       0                       0
153                     112                     108              105.656854                       0                       0                       0
154                     112                     108              102.828427                       0                       0                       0
155                     112                     108                     100                       0                       0                       0
156                     114                     110              105.656854                       0                       0                       0
157                     114                     110              102.828427                       0                       0                       0
158                     114                     110                     100                       0                       0                       0
159                     116                     108              105.656854                       0                       0                       0
160                     116                     108              102.828427                       0                       0                       0
161                     116                     108                     100                       0                       0                       0
162                     118                     110              105.656854                       0                       0                       0
163                     118                     110              102.828427                       0                       0                       0
164                     118                     110                     100                       0                       0                       0
165                     120                     108              105.656854                       0                       0                       0
166                     120                     108              102.828427                       0                       0                       0
167                     120                     108                     100                       0                       0                       0
168                     122                     110              105.656854                       0                       0                       0
169                     122                     110              102.828427                       0                       0                       0
170                     122                     110                     100                       0                       0                       0
171                     124                     108              105.656854                       0                       0                       0
172                     124                     108              102.828427                       0                       0                       0
173                     124                     108                     100                       0                       0                       0
174                     126                     110              105.656854                       0                       0                       0
175                     126                     110              102.828427                       0                       0                       0
176                     126                     110                     100                       0                       0                       0
177                     128                     108              105.656854                       0                       0                       0
178                     128                     108              102.828427                       0                       0                       0
179                     128                     108                     100                       0                       0                       0
180                     130                     110              105.656854                       0                       0                       0
181                     130                     110              102.828427                       0                       0                       0
182                     130                     110                     100                       0                       0                       0
183                     100                     112              105.656854                       0                       0                       0
184                     100                     112              102.828427                       0                       0                       0
185                     100                     112                     100                       0                       0                       0
186                     102                     114              105.656854                       0                       0                       0
187                     102                     114              102.828427                       0                       0                       0
188                     102                     114                     100                       0                       0                       0
189                     104                     112              105.656854                       0                       0                       0
190                     104                     112              102.828427                       0                       0                       0
191                     104                     112                     100                       0                       0                       0
192                     106                     114              105.656854                       0                       0                       0
193                     106                     114              102.828427                       0                       0                       0
194                     106                     114                     100                       0                       0                       0
195                     108                     112              105.656854                       0                       0                       0
196                     108                     112              102.828427                       0                       0                       0
197                     108                     112                     100                       0                       0                       0
198                     110                     114              105.656854                       0                       0                       0
199                     110                     114              102.828427                       0                       0                       0
200                     110                     114                     100                       0                       0                       0
201                     112                     112              105.656854                       0                       0                       0