ITEM: TIMESTEP
0
ITEM: NUMBER OF ATOMS
422
ITEM: BOX BOUNDS ff ff ff
0.0000000000000000e+00 2.3200000000000000e+02
0.0000000000000000e+00 2.3200000000000000e+02
0.0000000000000000e+00 2.3200000000000000e+02
ITEM: ATOMS id xu yu zu fx fy fz
1        113.145932193839        117.183520815677              108.656854     -0.0256135101525375     -0.0285895934656932      0.0765096199592021
2        118.827484840071        117.189226241634              108.656854      0.0229352206948387     -0.0292438616556852      0.0799645803236242
3        117.402344993917        117.187795112765              108.656854     -0.0196776517068668      -0.028090415440625      0.0977908145617904
4        114.571072038949        117.184951942936              108.656854      0.0248612459220887      -0.028683196796232      0.0999812838060559
5        116.701075167769        115.949724850164              108.656854     0.00176867642822202      0.0055583289387973     0.00417854587621183
6        115.274826990867        115.948292608712              108.656854     0.00601632778511269     0.00564739018760582     0.00463058854667182
7        115.272341865028        118.423022205388              108.656854      0.0322505157217669      0.0117842790676918      0.0548866205330956
8        116.698590041422        118.424454446583              108.656854     -0.0238476897278872      0.0112679214136447      0.0516840216206187
9        114.517756920757        114.748446241175              108.656854      0.0244678097614348      0.0343316328411737       0.121997930481364
10        117.460553482731        114.751401403886              108.656854     -0.0435420226311332      0.0339360226432561        0.12062125835608
11        114.512863550773        119.621345651893              108.656854     0.00787305551172701     0.00797964993564663      0.0256927506894403
12        117.455660110655        119.624300814179              108.656854     -0.0258470004324072     0.00791962880282226      0.0254979938427396
13        113.127311260236        114.762444587898              108.656854      -0.021028720388767       0.022951795224199      0.0816881225659589
14        113.122448808114        119.604554762274              108.656854   -0.000777449150614744     0.00770576660075907      0.0131214419474227
15        118.850968226168        114.768192293572              108.656854     0.00487400677114071      0.0236800395362799      0.0853069936315424
16        118.846105771496         119.61030247058              108.656854     -0.0145756346057235      0.0086071477257211      0.0157428876140108
17        112.426795838139         118.39431994364              108.656854     -0.0136569347721751      0.0120622362001612      0.0304283025744897
18         112.42922905874        115.971279815063              108.656854     0.00351729514358699     0.00196721998167597     0.00405442458233512
19        119.546621196692        115.978427112272              108.656854     0.00642778169168161     0.00175304955369951     0.00277842900081917
20        119.544187975028         118.40146724296              108.656854       0.024373703942008      0.0119844843597384      0.0308727015120507
21        120.955135022624        116.024435085822              108.656854       0.151580724525487       0.142773488282571      0.0315101913415718
22        120.952791362251        118.358288229576              108.656854       0.116923149562199      -0.050914266108336      0.0337730107475154
23        111.020625673161        116.014458829493              108.656854     -0.0339619088479463       0.145390527445802      0.0535578080500301
24        111.018282013145        118.348311972274              108.656854    -0.00085402923528234     -0.0434927177365177      0.0585299803954235
25        121.586726460739        117.191997078118              108.656854     -0.0629032491970643     -0.0629535158260104       0.075514633733096
26        110.386690574472        117.180749978664              108.656854    -0.00327415424779705     -0.0663256842509233      0.0613159134274588
27        121.609196045824        119.385922140926              108.656854      -0.163324572027439     -0.0133277518035128        0.05394878543014
28          121.6136022867        114.998121569695              108.656854      -0.173333855969461     0.00937643243700305      0.0913059910883865
29        110.359814750727        119.374625487296              108.656854      0.0182884258394808     -0.0241447844202382      0.0249491238234502
30         110.36422099026         114.98682491673              108.656854      0.0233145737149884     0.00761785243238415      0.0610246379512659
31        112.599866822243        113.815454800093              108.656854     -0.0183518148473608      0.0178130669493707     -0.0073727582311125
32        112.593103500599        120.550483321209              108.656854     -0.0156750075440426      0.0412920301419345     0.00686904015887792
33        119.380313532952        113.822263734631              108.656854      0.0609632305429367      0.0178230510782511     -0.0132453645620032
34        119.373550207142        120.557292260389              108.656854      0.0554193521841752      0.0387497799389374    0.000861263371008381
35        114.962286572867         113.76896056388              108.656854     0.00834293423995658      0.0104946248006888    -0.00710326774878499
36        114.955425108682        120.601722146141              108.656854     0.00432943464033516      0.0271521654633052    -0.00557712264241319
37        117.017991924022        113.771024909739              108.656854      0.0184791024621284      0.0105166187559612    -0.00822185316427437
38        117.011130457531        120.603786490585              108.656854       0.020787233635518      0.0267236909101321    -0.00621121719966755
39                     100                     100              105.656854         0.2121296331826       0.213722327964591      -0.975750869738415
40                     100                     100              102.828427       0.432026902975532       0.430621782727437   -0.000272966116503019
41                     100                     100                     100       0.212153202185234       0.213314350668807       0.976214964405064
42                     102                     102              105.656854       -0.34443135979167      -0.347089014213095      -0.277820932695252
43                     102                     102              102.828427      -0.050904335947758     -0.0486526884387678      0.0004763999795854
44                     102                     102                     100      -0.344520100203527       -0.34628125405348       0.277038572177663
45                     104                     100              105.656854      0.0959430922301865       0.959730912212117      -0.809024138471199
46                     104                     100              102.828427     -0.0639089074992048       0.726934467024182   -0.000160248157715477
47                     104                     100                     100      0.0962745636859924       0.959309153679121       0.809272554570722
48                     106                     102              105.656854      -0.149535468766251      -0.514274293749685      -0.381283126998739
49                     106                     102              102.828427        0.14256176935205      0.0661490303755192    0.000170918364586736
50                     106                     102                     100       -0.15037348760479      -0.513569617284523       0.381051573966955
51                     108                     100              105.656854       0.110094381328555        1.05993477962374      -0.801917423426953
52                     108                     100              102.828427      -0.111954872756113       0.639965873363849    0.000254466968671612
53                     108                     100                     100       0.110872837193993        1.05999127100338       0.801449194479284
54                     110                     102              105.656854      -0.144327135435425      -0.581928759134489      -0.373940949720849
55                     110                     102              102.828427        0.14871950521002        0.13484725613246   -0.000805004138457509
56                     110                     102                     100      -0.145980488357846      -0.582637228606112       0.375333051017284
57                     112                     100              105.656854       0.132323011855018        1.10896669005056       -0.81047754488205
58                     112                     100              102.828427      -0.135921558731147       0.589096450929702    0.000893101538307412
59                     112                     100                     100       0.133116412263157        1.11004937321029       0.808942019474839
60                     114                     102              105.656854      -0.164581482278817      -0.620314959935362      -0.361974741468861
61                     114                     102              102.828427       0.169237956711209       0.175677497112631    -0.00191854214283083
62                     114                     102                     100      -0.165538541271603       -0.62306761157596       0.365177828577523
63                     116                     100              105.656854       0.166587799525165        1.14492551037771      -0.820899083901571
64                     116                     100              102.828427      -0.170771312688078       0.551626323201681     0.00122862332683318
65                     116                     100                     100       0.166587101354876        1.14660957618163       0.818809901233439
66                     118                     102              105.656854      -0.208713995905527      -0.652510766830642      -0.348541256061939
67                     118                     102              102.828427       0.213849940002271       0.208922029468685     -0.0019171617183987
68                     118                     102                     100      -0.207754446035135      -0.655259468609526       0.351742126227107
69                     120                     100              105.656854       0.222556381621683        1.18304805529713      -0.835045733864433
70                     120                     100              102.828427      -0.228166633542647       0.512590257135001     0.00089264834803949
71                     120                     100                     100       0.221763730791208         1.1841289969617       0.833510942176218
72                     122                     102              105.656854      -0.287529120624282      -0.688096666309507      -0.330411559318245
73                     122                     102              102.828427       0.292716392998458       0.244409966991752   -0.000804626489699459
74                     122                     102                     100      -0.285880411494132      -0.688803027830325       0.331802990118099
75                     124                     100              105.656854       0.325784882522313        1.23657710751639      -0.852115267726994
76                     124                     100              102.828427      -0.322560493929347       0.459582299533063    0.000255461054948957
77                     124                     100                     100       0.325008900109909        1.23663466765366       0.851645439081789
78                     126                     102              105.656854      -0.461227472009622      -0.727073614965764      -0.331853084954169
79                     126                     102              102.828427       0.396853218890462        0.28132506142217     0.00016761491799602
80                     126                     102                     100      -0.460393052313573       -0.72637429982613       0.331626766703716
81                     128                     100              105.656854       0.708087771293791         1.3403780463704      -0.754823511363451
82                     128                     100              102.828427      -0.280762075343754       0.396315554108181   -0.000157850495178823
83                     128                     100                     100       0.707757282878334        1.33995966758902       0.755067978641043
84                     130                     102              105.656854       -1.34065409741982      -0.708263148956625      -0.755263187491631
85                     130                     102              102.828427      -0.395857205558565       0.280690687263055    0.000472067672382831
86                     130                     102                     100        -1.3405648921447      -0.707461444534814       0.754487896630125
87                     100                     104              105.656854       0.958779853471703      0.0995994066732037      -0.808611524970792
88                     100                     104              102.828427       0.727860480818192     -0.0669279579148812   -0.000788648448159854
89                     100                     104                     100        0.95845927923492      0.0985536371194565       0.809924844130149
90                     102                     106              105.656854      -0.513076680481095      -0.156209678210479      -0.382306022822277
91                     102                     106              102.828427      0.0648707450357693       0.147667398591614     0.00158356298716452
92                     102                     106                     100      -0.512357521871912      -0.153881556067552       0.379752774894313
93                     104                     104              105.656854       0.247091742956107        0.25186657581245       -0.38889228246576
94                     104                     104              102.828427      -0.180000513097647      -0.183795454172678   -0.000866641785047343
95                     104                     104                     100       0.247421191155514       0.250159858572342        0.39026363847114
96                     106                     106              105.656854      -0.233085647005332      -0.242525877006354       -0.50355165614782
97                     106                     106              102.828427        0.22549953850822        0.23223339434471     0.00159908359631688
98                     106                     106                     100      -0.234392121442193      -0.238699808530515       0.501065128535712
99                     108                     104              105.656854       0.174279383017161       0.337420303640514       -0.37557115009025
100                     108                     104              102.828427      -0.177957353591944      -0.268130941240055     3.7877596711783e-05
101                     108                     104                     100       0.176551890336228        0.33645826407983       0.375413318512394
102                     110                     106              105.656854      -0.185325531207551      -0.291473451035226      -0.489724063961037
103                     110                     106              102.828427       0.193929508305376       0.284913613656264    -0.00127360095141717
104                     110                     106                     100      -0.191679424433071       -0.29155197987139       0.491915570317558
105                     112                     104              105.656854        0.16908378216233       0.380487160237777      -0.390205812242658
106                     112                     104              102.828427      -0.175339480304803      -0.314973757924282     0.00233411270367615
107                     112                     104                     100       0.172310097045168        0.38359177529628       0.386327919023927
108                     114                     106              105.656854      -0.191094567244128      -0.312474254666056      -0.470172341673942
109                     114                     106              102.828427       0.198860442829646       0.313279388359915    -0.00611620460219081
110                     114                     106                     100      -0.195633706564228      -0.322669505092345       0.480323310632354
111                     116                     104              105.656854       0.198194382093326       0.408391257964086      -0.404855505195505
112                     116                     104              102.828427      -0.203400640928626      -0.345580800544104     0.00376668797564245
113                     116                     104                     100       0.198188280007163       0.414413290521217       0.398677064282963
114                     118                     106              105.656854      -0.238129215188916      -0.334700070018236      -0.454273725108576
115                     118                     106              102.828427       0.241964098907267       0.336186243440338    -0.00610521095660397
116                     118                     106                     100      -0.233569295092098      -0.344864396486993       0.464405871465977
117                     120                     104              105.656854       0.258331504107098        0.43715241045362      -0.420929048566344
118                     120                     104              102.828427      -0.263654167194878      -0.373478969858968     0.00232936742830886
119                     120                     104                     100       0.255108633805631       0.440243750911369       0.417058888708999
120                     122                     106              105.656854       -0.31491873818085      -0.361456588034305      -0.437950624453271
121                     122                     106              102.828427       0.318014373469441       0.357169420249857    -0.00126856104844523
122                     122                     106                     100      -0.308595578281033       -0.36152184415303       0.440133772388812
123                     124                     104              105.656854       0.366960359047033       0.462721313920343      -0.438893699456609
124                     124                     104              102.828427      -0.361712377912992      -0.397337904742814    4.07821075642621e-05
125                     124                     104                     100       0.364699477589849       0.461764609592796       0.438731403142127
126                     126                     106              105.656854      -0.466148448004124      -0.366818624899949      -0.440468072593216
127                     126                     106              102.828427        0.40084028906525       0.360467218235756     0.00158565190041828
128                     126                     106                     100      -0.464852261884067      -0.363020445532216       0.438003121691766
129                     128                     104              105.656854       0.728078558988259       0.461360695732536      -0.331036882607337
130                     128                     104              102.828427      -0.282597121016012       -0.39647939675523   -0.000858853549425455
131                     128                     104                     100       0.727750144961401       0.459666906589504       0.332395931135839
132                     130                     106              105.656854        -1.2373142386412       -0.32746555263916      -0.853143357512324
133                     130                     106              102.828427      -0.458416688777831       0.323403411818505     0.00157060629075435
134                     130                     106                     100       -1.23802641804608      -0.325156028935429       0.850610607027942
135                     100                     108              105.656854        1.06207956174573        0.11632377691603      -0.800343963374997
136                     100                     108              102.828427       0.638753112045269      -0.116748682705611     -0.0019793182231139
137                     100                     108                     100        1.06040138342274       0.114179288249607       0.803572520580025
138                     102                     110              105.656854      -0.587823158350047      -0.155367960213881      -0.378064966879954
139                     102                     110              102.828427       0.137740921538691       0.156297745251899     0.00428411853846665
140                     102                     110                     100      -0.583472814648515      -0.150581703864215       0.371201137202111
141                     104                     108              105.656854       0.336367567252907       0.187584470802843       -0.37259633537934
142                     104                     108              102.828427      -0.266383899846759      -0.186890819561252    -0.00343310927963401
143                     104                     108                     100       0.334655630765783       0.181889218043069       0.378069768887653
144                     106                     110              105.656854      -0.292580572870278      -0.214475514909069      -0.500364941861461
145                     106                     110              102.828427       0.282308006600642       0.209366126477491     0.00783758537123156
146                     106                     110                     100      -0.288633529078527      -0.199221721304481       0.486612647856665
147                     108                     108              105.656854       0.223020853276985       0.244022849049599      -0.362779181427681
148                     108                     108              102.828427      -0.230082933085321      -0.242402342301306    -0.00263467393862717
149                     108                     108                     100       0.228739899041998       0.235341243745643       0.367302503909844
150                     110                     110              105.656854       -0.19581748324899       -0.24529312337517      -0.480041620191516
151                     110                     110              102.828427       0.220215343134745       0.241363771439535     0.00154949483048766
152                     110                     110                     100      -0.223168255271514      -0.232205740073395       0.475722045069087
153                     112                     108              105.656854       0.186823562635287       0.258561306185399      -0.389946340113266
154                     112                     108              102.828427      -0.202207017040512      -0.269608040501947     0.00635220192797104
155                     112                     108                     100       0.202612946868259       0.267260150316634       0.378836585624979
156                     114                     110              105.656854      -0.191185296621577       -0.20536460626762      -0.420219729586649
157                     114                     110              102.828427       0.212731118507151       0.246810186720224     -0.0201981776995165
158                     114                     110                     100      -0.214425767419696      -0.249094206136379       0.467769521784091
159                     116                     108              105.656854       0.220230889039478       0.262025059914968      -0.414510810581982
160                     116                     108              102.828427      -0.226101525608986      -0.284498642569426      0.0132964012350441
161                     116                     108                     100       0.220183668948585       0.286472492613336       0.391083793006158
162                     118                     110              105.656854      -0.271685715497953      -0.216555522746129      -0.403042395586971
163                     118                     110              102.828427       0.262666370914279       0.258157275465731     -0.0201282351616693
164                     118                     110                     100      -0.248262692292349       -0.26006411703655       0.450398922012787
165                     120                     108              105.656854       0.288199746079778       0.292251448301652      -0.424696034186531
166                     120                     108              102.828427      -0.285991352517687      -0.304281970806731     0.00631671263636497
167                     120                     108                     100       0.272440439637589       0.300849489842134       0.413653496570244
168                     122                     110              105.656854      -0.340662377871218      -0.278867905046841      -0.423666435546131
169                     122                     110              102.828427       0.329391818299314       0.275934941242972     0.00157959178916455
170                     122                     110                     100      -0.313589915018181      -0.265697029157628       0.419292843334218
171                     124                     108              105.656854       0.373843645737117       0.313600558746753       -0.43514033945434
172                     124                     108              102.828427      -0.366874989163523      -0.314289681830531    -0.00261918752103089
173                     124                     108                     100       0.368184141989224       0.304968583639526       0.439629964065197
174                     126                     110              105.656854      -0.442869036144847      -0.270248302748122      -0.428937582027731
175                     126                     110              102.828427         0.3813319444441       0.267064528558973     0.00777761029833278
176                     126                     110                     100      -0.446800382091082      -0.255128018777917       0.415313645351763
177                     128                     108              105.656854       0.690152756648592       0.291667938277967      -0.327887547009244
178                     128                     108              102.828427      -0.247389896849708      -0.294399631480124    -0.00340486280327512
179                     128                     108                     100       0.691850461519518       0.286021158720876       0.333314924138178
180                     130                     110              105.656854        -1.1816631524644      -0.227699762960444       -0.83804303410979
181                     130                     110              102.828427      -0.511847460566198       0.231037563586278     0.00424889729706633
182                     130                     110                     100       -1.18597358710104        -0.2229537876286       0.831235818144797
183                     100                     112              105.656854        1.11723344512788       0.138712626380716       -0.80686721986744
184                     100                     112              102.828427       0.584004466000751      -0.140537618899208    -0.00390494497602814
185                     100                     112                     100        1.11252151440705       0.136063657381023       0.813163701931949
186                     102                     114              105.656854      -0.637632142116346      -0.172424307126388      -0.370759706005891
187                     102                     114              102.828427       0.184508945865572       0.174207960413075     0.00801245798499695
188                     102                     114                     100      -0.626461499967721      -0.168289096959598       0.357802983615123
189                     104                     112              105.656854       0.396879757067286        0.18863500296326      -0.377662378052299
190                     104                     112              102.828427      -0.320936875822816      -0.186386394047518    -0.00973964762182172
191                     104                     112                     100       0.384698229325495       0.177935734012946       0.394137208188583
192                     106                     114              105.656854      -0.352786137301527      -0.217727381336755      -0.512467950900383
193                     106                     114              102.828427       0.321471329802521       0.210499231278783      0.0208584647361671
194                     106                     114                     100      -0.322632923211907      -0.200482633928694       0.467327603372207
195                     108                     112              105.656854       0.267124365701068       0.253948353639324      -0.340740116797972
196                     108                     112              102.828427      -0.263141012103979      -0.224344185052724     -0.0159273409532238
197                     108                     112                     100       0.262051467728793       0.211226081372648       0.388018438577599
198                     110                     114              105.656854      -0.154266699769377      -0.263167834906851      -0.630836744264329
199                     110                     114              102.828427       0.227166917520722       0.228735250950724      0.0152243707100756
200                     110                     114                     100      -0.240419376977878      -0.220198406881583       0.456656999143458
201                     112                     112              105.656854         0.1361995317625       0.221470516963641      -0.429074155992907