ITEM: TIMESTEP
0
ITEM: NUMBER OF ATOMS
422
ITEM: BOX BOUNDS ff ff ff
0.0000000000000000e+00 2.3200000000000000e+02
0.0000000000000000e+00 2.3200000000000000e+02
0.0000000000000000e+00 2.3200000000000000e+02
ITEM: ATOMS id xu yu zu fx fy fz
1        113.145932193839        115.983520815677              112.056854     0.00303852937284513     -0.0011334281537592   -0.000993770184980306
2        118.827484840071        115.989226241634              112.056854    -0.00534374483249587    -0.00110539485373038   -0.000601320264675732
3        117.402344993917        115.987795112765              112.056854     0.00248819288727535     0.00243675048946423    -0.00142594112497929
4        114.571072038949        115.984951942936              112.056854     0.00246222463254668     0.00247611319416272    -0.00101136885245112
5        116.701075167769        114.749724850164              112.056854     0.00293975104868477     0.00430471215810207    -0.00121708109137518
6        115.274826990867        114.748292608712              112.056854     0.00358855882720081     0.00431521955948552   -0.000942628821695092
7        115.272341865028        117.223022205388              112.056854     0.00356175470606955     0.00222180147086384    -0.00141972350106433
8        116.698590041422        117.224454446583              112.056854     0.00287993092774634     0.00217846097626533    -0.00168987300878495
9        114.517756920757        113.548446241175              112.056854    -0.00292840531029068    -0.00514122246246093    -0.00177806825270422
10        117.460553482731        113.551401403886              112.056854     -0.0125272807408798    -0.00518004796529411   -0.000430158345517014
11        114.512863550773        118.421345651893              112.056854    -0.00287021661972384     -0.0104268158624259    0.000485333869722515
12        117.455660110655        118.424300814179              112.056854      -0.012153049244605     -0.0101514817854937     0.00179197781492317
13        113.127311260236        113.562444587898              112.056854      0.0149813883903323    -0.00669521631556436    -0.00218840155686983
14        113.122448808114        118.404554762274              112.056854      0.0149003230517723    -0.00645314020410812    -0.00028457898184641
15        118.850968226168        113.568192293572              112.056854     -0.0282487447415526    -0.00678521331944361    9.07264396999984e-05
16        118.846105771496         118.41030247058              112.056854     -0.0278119176122654    -0.00602756881876446     0.00192689514509554
17        112.426795838139         117.19431994364              112.056854     0.00315101502600889     0.00696651417441396    -0.00083009179935258
18         112.42922905874        114.771279815063              112.056854     0.00311288285347069     0.00103065771384164   -0.000258993474169759
19        119.546621196692        114.778427112272              112.056854     0.00510743314217901    0.000970446167200724    -0.00202949931400867
20        119.544187975028         117.20146724296              112.056854     0.00494813378703047     0.00670936546574731    -0.00257548973096401
21        120.955135022624        114.824435085822              112.056854       0.104662276484644       0.134811908786377     -0.0187582821960304
22        120.952791362251        117.158288229576              112.056854        0.10274589964854     -0.0498419533816512     -0.0245445110681719
23        111.020625673161        114.814458829493              112.056854    -0.00935341201758326       0.135739721358339      0.0107100317865102
24        111.018282013145        117.148311972274              112.056854    -0.00826002867422601     -0.0459032975457381     0.00452765564099509
25        121.586726460739        115.991997078118              112.056854     -0.0350712647237319     -0.0225694453286929      0.0120100278722821
26        110.386690574472        115.980749978664              112.056854     -0.0170057349194568     -0.0240977613901975    -0.00639221217534522
27        121.609196045824        118.185922140926              112.056854      -0.117664105215287     -0.0546862952381777      0.0349914353184498
28          121.6136022867        113.798121569695              112.056854      -0.122952532853041     -0.0482625504565233      0.0217424301260181
29        110.359814750727        118.174625487296              112.056854     0.00230371905090453     -0.0620198943280132     -0.0059125431059426
30         110.36422099026         113.78682491673              112.056854     0.00484075754198144     -0.0477603520259013     -0.0202258763036587
31        112.599866822243        112.615454800093              112.056854     -0.0313853027578567       0.010705057494763     0.00467909928929218
32        112.593103500599        119.350483321209              112.056854     -0.0309254414474547      0.0245238310688846    -0.00249093715849508
33        119.380313532952        112.622263734631              112.056854      0.0667399214135052      0.0112661166167189    -0.00256055829936035
34        119.373550207142        119.357292260389              112.056854      0.0649319669442034      0.0228282495610674    -0.00942994107416647
35        114.962286572867         112.56896056388              112.056854      0.0119851523591012     0.00596838267281026     0.00139215924087562
36        114.955425108682        119.401722146141              112.056854      0.0117672429195013      0.0171214572954293    -0.00336703483364588
37        117.017991924022        112.571024909739              112.056854      0.0105562211571014     0.00606140060940372    2.31518982994313e-05
38        117.011130457531        119.403786490585              112.056854     0.00988411399570753      0.0167636922476518    -0.00467555838250616
39                     100                     100              105.656854       0.212140226232548       0.213697820377867      -0.975533104667205
40                     100                     100              102.828427       0.432013881343769       0.430753864320478   -0.000388477214417397
41                     100                     100                     100       0.212184948871044       0.213157899743581       0.976241182985682
42                     102                     102              105.656854      -0.344447130664109      -0.346964283372027      -0.278196666511322
43                     102                     102              102.828427     -0.0508635561424469     -0.0489487730308281     0.00061930630919098
44                     102                     102                     100      -0.344608331419602      -0.345995332465103       0.277054842359865
45                     104                     100              105.656854          0.095937985768       0.959740703081266      -0.808862609769027
46                     104                     100              102.828427     -0.0639967974596882       0.727041612920221   -0.000217546139304976
47                     104                     100                     100      0.0964160427356126       0.959191312009373       0.809258528689172
48                     106                     102              105.656854       -0.14958893251374      -0.514229669723835      -0.381486776764683
49                     106                     102              102.828427       0.142829857177444      0.0659537802422429    0.000184606213906988
50                     106                     102                     100      -0.150714328999468      -0.513416130095263       0.381118976198301
51                     108                     100              105.656854       0.110065118974563         1.0600360414803      -0.802050855834575
52                     108                     100              102.828427      -0.112150802371624       0.639877508227157    0.000354026203274397
53                     108                     100                     100       0.111143223533136        1.06008364591151       0.801395554418123
54                     110                     102              105.656854      -0.144435381638768      -0.582245325630062      -0.373452138227762
55                     110                     102              102.828427        0.14922617993012       0.135235120239195    -0.00102713542471533
56                     110                     102                     100      -0.146520261803197      -0.582990859754769       0.375363014721947
57                     112                     100              105.656854       0.132289629403997         1.1092002763867      -0.811113624609632
58                     112                     100              102.828427      -0.136118875865924       0.588646779779183     0.00119730665442994
59                     112                     100                     100       0.133366787110401         1.1104907155649       0.808880048630632
60                     114                     102              105.656854      -0.164647390125409      -0.621106230050084      -0.360641974566554
61                     114                     102              102.828427       0.169527897494461       0.176833361968951    -0.00233458821174744
62                     114                     102                     100      -0.165826057615636      -0.624015363046177        0.36509968003862
63                     116                     100              105.656854        0.16658819415108        1.14522801133957      -0.821809710500431
64                     116                     100              102.828427      -0.170771414222323       0.550973497343564     0.00163187137271816
65                     116                     100                     100       0.166587108536931        1.14723838140773       0.818754040480809
66                     118                     102              105.656854      -0.208649011168952      -0.653301856464346      -0.347209849136703
67                     118                     102              102.828427       0.213560045977385       0.210076931251713    -0.00233285690719873
68                     118                     102                     100      -0.207466757823741      -0.656206420641499       0.351664007069589
69                     120                     100              105.656854       0.222590273673123        1.18328220433949      -0.835681175261282
70                     120                     100              102.828427      -0.227969913542094       0.512140659468804     0.00119652077757359
71                     120                     100                     100       0.221513841335522        1.18457008696073       0.833449124867499
72                     122                     102              105.656854      -0.287421731966125      -0.688414427864985      -0.329923569953232
73                     122                     102              102.828427       0.292211470736201       0.244797984599138    -0.00102607620077029
74                     122                     102                     100      -0.285342077780459      -0.689156312824629       0.331832505855193
75                     124                     100              105.656854       0.325814152402061        1.23667948860226      -0.852249240843368
76                     124                     100              102.828427      -0.322365293489421       0.459492917480797    0.000354948527981153
77                     124                     100                     100       0.324739355815458        1.23672763649616       0.851592147574782
78                     126                     102              105.656854      -0.461173974955452      -0.727031743431128      -0.332054643805282
79                     126                     102              102.828427       0.396586150666161       0.281132672536767    0.000181442594374264
80                     126                     102                     100      -0.460053459141957      -0.726222495540584       0.331693220649983
81                     128                     100              105.656854        0.70809264498138        1.34038904168233       -0.75466367908754
82                     128                     100              102.828427      -0.280674320580737       0.396420964622795   -0.000214688755963755
83                     128                     100                     100       0.707616167382211         1.3398432138238       0.755054246051246
84                     130                     102              105.656854       -1.34063780212884      -0.708140757083464      -0.755636018153421
85                     130                     102              102.828427      -0.395898382419873       0.280397639062532    0.000614374448038899
86                     130                     102                     100       -1.34047665694846      -0.707177819752232       0.754503502798452
87                     100                     104              105.656854        0.95874483624014      0.0992972127967226      -0.808065560218263
88                     100                     104              102.828427       0.727952814516372     -0.0664568064389742   -0.000988115500960348
89                     100                     104                     100       0.958417998178718      0.0981270334482206       0.809889855119633
90                     102                     106              105.656854      -0.512862350210019      -0.155275450481095      -0.383291856162744
91                     102                     106              102.828427      0.0646509335885936       0.146588615331582     0.00170929191302036
92                     102                     106                     100      -0.512332632236409      -0.153091421340769        0.38001697443071
93                     104                     104              105.656854       0.247134775802145       0.251411158932988       -0.38824288892391
94                     104                     104              102.828427      -0.180153360922007       -0.18312757648094   -0.000969986415499356
95                     104                     104                     100       0.247676100165011       0.249654611627375       0.390116906463781
96                     106                     106              105.656854       -0.23334184708076      -0.240961511184126      -0.504553517915318
97                     106                     106              102.828427       0.226124910058477       0.230768956524129     0.00137377964736418
98                     106                     106                     100      -0.235131822585324        -0.2378974630577       0.501514215621763
99                     108                     104              105.656854       0.174663246933507        0.33728905384172      -0.375455816401508
100                     108                     104              102.828427      -0.178779998148443      -0.267901162988701    0.000160906799535987
101                     108                     104                     100        0.17735733593192       0.336377452793238       0.375292841460468
102                     110                     106              105.656854       -0.18729037069961      -0.291826732920226      -0.489241303881123
103                     110                     106              102.828427        0.19631790591051       0.285265433471344    -0.00148866645675437
104                     110                     106                     100      -0.193422746654772      -0.291959421666769        0.49184502206022
105                     112                     104              105.656854       0.169692777077263       0.381828655477877      -0.391588468046256
106                     112                     104              102.828427      -0.176452618749596      -0.316392539681766     0.00258019091961882
107                     112                     104                     100       0.173230210084236       0.384615120600495       0.386563149682371
108                     114                     106              105.656854      -0.192589455751972      -0.317943168734852      -0.467376807141599
109                     114                     106              102.828427       0.200504078036507       0.317426686945518    -0.00552179802381431
110                     114                     106                     100      -0.196697757455462      -0.324979861784509       0.479148150694791
111                     116                     104              105.656854       0.198194082194179       0.410781432237912      -0.407192921770132
112                     116                     104              102.828427      -0.203399288426776      -0.348119347705039     0.00400829527730329
113                     116                     104                     100       0.198187228883249       0.416120735875491        0.39917614995496
114                     118                     106              105.656854      -0.236630358196491      -0.340155199784168      -0.451483623052501
115                     118                     106              102.828427        0.24031514277703       0.340323853607762    -0.00551276023581682
116                     118                     106                     100      -0.232501680447003      -0.347170024808342       0.463232800790773
117                     120                     104              105.656854       0.257724856419949       0.438491516912779      -0.422307661401325
118                     120                     104              102.828427      -0.262543020156808      -0.374893984885827     0.00257479676249302
119                     120                     104                     100       0.254189520590062       0.441264416147591       0.417293793042672
120                     122                     106              105.656854      -0.312966566077213       -0.36180985310329       -0.43747322129924
121                     122                     106              102.828427       0.315636848265718       0.357517348370214    -0.00148120294287191
122                     122                     106                     100       -0.30685784106723      -0.361925357615455       0.440062907093627
123                     124                     104              105.656854       0.366578671164268       0.462595213350618      -0.438779234447323
124                     124                     104              102.828427      -0.360893792605939      -0.397111218369171    0.000162057259682964
125                     124                     104                     100       0.363897244703908       0.461684523617344       0.438612572917612
126                     126                     106              105.656854      -0.465892752912629      -0.365273013794223      -0.441465585708863
127                     126                     106              102.828427       0.400218991933608       0.359014112898905     0.00136590737694688
128                     126                     106                     100      -0.464116766353791      -0.362221822344898       0.438447321357561
129                     128                     104              105.656854       0.728034569101655       0.460911735612644      -0.330392030258996
130                     128                     104              102.828427      -0.282444386081363      -0.395817704737005   -0.000962851131174287
131                     128                     104                     100       0.727496183135027        0.45916513735938       0.332251371579031
132                     130                     106              105.656854       -1.23752437540395      -0.326541875827058      -0.854122802740649
133                     130                     106              102.828427      -0.458199837259366       0.322333759006686     0.00169798299609933
134                     130                     106                     100       -1.23805065519861      -0.324370890789236       0.850871097489435
135                     100                     108              105.656854        1.06148548354894       0.115207771144243      -0.799273217358766
136                     100                     108              102.828427        0.63941403656093      -0.115587432563615    -0.00209570149974204
137                     100                     108                     100        1.06002577082961        0.11332612659065       0.803234250368528
138                     102                     110              105.656854      -0.585546981701976      -0.152280396817054       -0.37967033490708
139                     102                     110              102.828427       0.136114680559686       0.153848162230901     0.00362530737766993
140                     102                     110                     100      -0.582876448372419      -0.149153421654429       0.372330863118147
141                     104                     108              105.656854       0.335427595746966       0.184504339355637      -0.371031941232625
142                     104                     108              102.828427      -0.265955379515179      -0.184397133466227    -0.00289983716868795
143                     104                     108                     100       0.334824900029231        0.18050917835269       0.377174168775726
144                     106                     110              105.656854      -0.288936745811122        -0.2035743703847      -0.500453116286099
145                     106                     110              102.828427       0.282118996812126       0.203992313552868     0.00438311684303682
146                     106                     110                     100      -0.289701274563006      -0.197188763775287       0.488862763145634
147                     108                     108              105.656854       0.225051901267983       0.238867929176212      -0.362175434163347
148                     108                     108              102.828427       -0.23266414846405      -0.239654682776162    -0.00128981380092824
149                     108                     108                     100       0.230764174316472       0.234410166894258       0.366435935507667
150                     110                     110              105.656854      -0.212279763142335       -0.23494434980622      -0.477352748584123
151                     110                     110              102.828427       0.229377087400328       0.238686469209995    -0.00104186041401362
152                     110                     110                     100       -0.22780889350826      -0.232065447502232       0.476159782501515
153                     112                     108              105.656854       0.194354618955547        0.26468116975493      -0.391045431035011
154                     112                     108              102.828427      -0.207816167029712      -0.273091898088234     0.00504224141093867
155                     112                     108                     100       0.205639411447756       0.269075792104236        0.38017324614432
156                     114                     110              105.656854       -0.20568283171838      -0.241804316593115      -0.433237030472935
157                     114                     110              102.828427       0.220233439669584       0.257320089944021     -0.0112356459518305
158                     114                     110                     100      -0.217633285976598      -0.253052747215205       0.462952825411247
159                     116                     108              105.656854       0.220209657610355       0.278549305026935       -0.41645700242075
160                     116                     108              102.828427      -0.226087381292804      -0.293187399538285     0.00935190918700394
161                     116                     108                     100       0.220176902431159       0.290257919972159       0.394172460187168
162                     118                     110              105.656854      -0.257073459875323        -0.2528196222288      -0.415985521407958
163                     118                     110              102.828427       0.255120236567284       0.268619317791741      -0.011202937533179
164                     118                     110                     100      -0.245036552536219      -0.264006923586895       0.445597622826145
165                     120                     108              105.656854       0.280692476512889       0.298313048103534      -0.425790672984935
166                     120                     108              102.828427      -0.280391862661131       -0.30773573824093     0.00501749746288482
167                     120                     108                     100       0.269415992446701       0.302652211269231       0.414983072766717
168                     122                     110              105.656854      -0.324405798992924      -0.268485222592367      -0.421002477621351
169                     122                     110              102.828427       0.320294670214147       0.273226685470148    -0.00100962449489471
170                     122                     110                     100      -0.308968587894542      -0.265539164409151       0.419737690967465
171                     124                     108              105.656854       0.371837199960517       0.308494385438758      -0.434524024262887
172                     124                     108              102.828427      -0.364315986219238      -0.311553165962162     -0.0012904168408359
173                     124                     108                     100       0.366171854673208       0.304036179487125       0.438769357931345
174                     126                     110              105.656854      -0.446476535953954      -0.259468423500627      -0.429069982058922
175                     126                     110              102.828427        0.38153016106235       0.261722583368075     0.00436851966715454
176                     126                     110                     100      -0.445745110117006       -0.25309836528445       0.417546566349724
177                     128                     108              105.656854       0.691079186853287        0.28862246014986      -0.326328658413068
178                     128                     108              102.828427      -0.247814760066296       -0.29192538350578     -0.0028833172929896
179                     128                     108                     100       0.691683150045589       0.284647844727669       0.332428820192481
180                     130                     110              105.656854       -1.18391052944493      -0.224643793033118         -0.839643584185
181                     130                     110              102.828427      -0.510235264121579       0.228606125742256     0.00360423267147102
182                     130                     110                     100       -1.18656730897906      -0.221532281637455         0.8323534346729
183                     100                     112              105.656854         1.1146944471463       0.136665590436315      -0.805492592130841
184                     100                     112              102.828427       0.586095787518033      -0.138867193475751    -0.00343162193578015
185                     100                     112                     100        1.11143593001448       0.135009559875961       0.812141500505592
186                     102                     114              105.656854      -0.630058438039713      -0.168601981383309      -0.371650632694706
187                     102                     114              102.828427       0.180150753223581       0.171741101823264     0.00538353907581012
188                     102                     114                     100      -0.624908755265336      -0.167023999435132       0.360343401592079
189                     104                     112              105.656854       0.388106186284393       0.180204432100077      -0.377583448567866
190                     104                     112              102.828427      -0.317441602697958      -0.181766482611101    -0.00582790123784796
191                     104                     112                     100       0.384175246026284       0.175918609971936       0.391210765941631
192                     106                     114              105.656854      -0.325210242125236      -0.201828874459481      -0.495304812818052
193                     106                     114              102.828427       0.317255908218028       0.204612038451303     0.00761937952177035
194                     106                     114                     100      -0.323664831427084      -0.198570253944915       0.472984244886043
195                     108                     112              105.656854       0.257421731733555       0.215594582255037      -0.366102762443728
196                     108                     112              102.828427       -0.26766364743873      -0.216215359098375    -0.00450459149041965
197                     108                     112                     100       0.265880649493575       0.209311425445917       0.384222322750279
198                     110                     114              105.656854       -0.22253926311178      -0.219982531150243      -0.465552263364901
199                     110                     114              102.828427       0.248914972466179       0.225971281972422   -0.000122312811413331
200                     110                     114                     100       -0.24904376779325       -0.21999091630055       0.458737739560133
201                     112                     112              105.656854          0.200551464085        0.22676602578691      -0.416060707181749