ITEM: TIMESTEP
0
ITEM: NUMBER OF ATOMS
422
ITEM: BOX BOUNDS pp pp pp
0.0000000000000000e+00 3.2000000000000000e+01
0.0000000000000000e+00 3.2000000000000000e+01
0.0000000000000000e+00 3.2000000000000000e+01
ITEM: ATOMS id xu yu zu fx fy fz
1        13.1323083863814        15.9698970082201        8.64322619254279    -0.00620978974181591     0.00103252162218005     0.00904762235648082
2        18.7868651569335        15.9486065584968        8.61623031686242     0.00681511585872291     0.00210233209864435      0.0139337653820029
3        17.4510236937305        16.0364738125784        8.70552869981349    -0.00443181319949454    -0.00134982448165314     0.00830260633585364
4        14.5262229358396        15.9401028398264        8.61200089689059     0.00594387129836398     0.00309111815050306      0.0200531205360764
5         16.653051670312        14.7017013527065        8.60882650254276      -0.027445457900229      0.0151546353317231      0.0480830991010412
6        15.2300462626953        14.7035118805398        8.61206927182788      0.0306605610021057       0.018028983828426      0.0588171464515793
7        15.2551949067839         17.205875247144        8.63970304175631      0.0249975166744771     -0.0163173073227855       0.044467401124692
8        16.6948945710649        17.2207589762259        8.65315452964335     -0.0230188635146743      -0.014357550328454      0.0383346455808794
9        14.5294097698637        13.5600990902815        8.66850284910636      0.0291554131707613     -0.0242172773124626       0.141131174776224
10        17.4200640523643         13.510911973519          8.616360569633     -0.0361359772833042     -0.0304664089201459       0.160317352402861
11        14.5467399606831        18.4552220618033        8.69072640991023      0.0272244226765402      0.0226586599127023       0.126481219048354
12          17.41953953711        18.3881802406337         8.6207294264548     -0.0376500107345272      0.0251616359137452         0.1676484540152
13        13.1342967465497        13.5694300742116        8.66383548631398     -0.0362481197005675     -0.0180413074434088       0.103470551699895
14        13.0797590570564         18.361865011217         8.6141602489427     -0.0446734934354835      0.0176031806213414          0.122039806326
15        18.8887060029732        13.6059300703772        8.69458777680515      0.0331144497544196     -0.0146969190543578      0.0906264833167167
16        18.8652689731687        18.4294656722529        8.67601320167241      0.0347278695916009      0.0172477319443557      0.0986346745061223
17        12.4068799620758        17.1744040675768        8.63693412393684     -0.0145340080962195    -0.00952060130088678      0.0205993650452415
18        12.4440303944561          14.78608115078        8.67165133571656      -0.014599948881576     0.00895007024618003      0.0188137249620725
19        19.5581164903376        14.7899224059174        8.66834529364532      0.0146427722540702     0.00902619635227708      0.0190435808191212
20        19.5790450223127         17.236324290244        8.69170704728442      0.0132628809852376    -0.00800980572857696      0.0157155691883283
21        20.9390773506112        14.8083774138095        8.64079232798714     -0.0281260786820847      0.0215873511031317         0.0611892029904
22         20.970251299162        17.1757481664871        8.67430993691128     -0.0249430041441869     -0.0200717839916099      0.0541481013490938
23        11.0088852311978        14.8027183875293        8.64510955803676      0.0284375878825058      0.0227300169632387      0.0655302176813878
24        11.0397068289184        17.1697367880466        8.67827481577298      0.0243533109449522     -0.0195598204192024      0.0518940489631022
25        21.6103455848544        16.0156162022326        8.68046912411493     -0.0013394732875379   -0.000278060546087253     -0.0030408069619611
26        10.3844268714163        15.9784862756091        8.65458629694465     0.00146437840734681    0.000421237241312003    -0.00185188239138235
27        21.6307088747717         18.207434969874        8.67836282894768    -0.00976547779653324     0.00547787346602737      0.0623580205690007
28        21.6340864195872        13.8186057025818        8.67733413288706    -0.00979360912590313    -0.00484782179498749      0.0632704311918471
29         10.358857429958        18.1736681665269        8.65589267923058      0.0104679692589284     0.00505901187699815      0.0697433643589928
30         10.317738518921        13.7403424453903        8.61036752866053      0.0109258916108867    -0.00892493221158819      0.0835669394709714
31        12.5864273395787        12.6020153174294         8.6434105173361   -0.000572576397606748   -0.000559779207791399    -0.00922662383852604
32        12.6188076597963        19.3761874804063        8.68255415919706   -0.000525791593413934    0.000521729954245559    -0.00924193157029398
33        19.3723693474603        12.6143195491397        8.64890581450839    0.000622353513979894   -0.000634090800422115    -0.00908519574811594
34        19.4109518986634          19.39469395191        8.69425169152101    0.000436964227174017    0.000424994718641328    -0.00941732124426467
35        14.9152145908083         12.521888581821        8.60977801794145    0.000944503762052138    -0.00174978044080209    -0.00733677136914432
36        14.9626409754743        19.4089380129332        8.66406586679235    0.000849966987489182      0.0014441264758957    -0.00768251830912779
37        17.0201818442072         12.573214829925        8.65903992018572   -0.000820880846103433    -0.00139413712230081    -0.00782044517045693
38         16.961421321869        19.3540773549225        8.60714086433795    -0.00124059894644794     0.00176325604435266    -0.00701923120844305
39                       0                       0                5.656854                       0                       0                       0
40                       0                       0                2.828427                       0                       0                       0
41                       0                       0                       0                       0                       0                       0
42                       2                       2                5.656854    6.18733508518638e-10     8.7333152586154e-10    2.19703683145169e-10
43                       2                       2                2.828427                       0                       0                       0
44                       2                       2                       0                       0                       0                       0
45                       4                       0                5.656854                       0                       0                       0
46                       4                       0                2.828427                       0                       0                       0
47                       4                       0                       0                       0                       0                       0
48                       6                       2                5.656854    1.85144878085004e-08    3.78404085149096e-08    9.70980150203426e-09
49                       6                       2                2.828427     6.8966476913693e-10    1.42881731234974e-09    7.19351028945436e-10
50                       6                       2                       0                       0                       0                       0
51                       8                       0                5.656854    6.83338848179645e-10    9.84921679752266e-11    4.81055962380422e-10
52                       8                       0                2.828427     3.9962293422166e-10    3.73091301846189e-11    5.06589003194577e-10
53                       8                       0                       0                       0                       0                       0
54                      10                       2                5.656854    7.94495514005045e-08    3.09213741571024e-07    8.14443600530859e-08
55                      10                       2                2.828427    2.87218973865469e-09    1.12335032091019e-08     5.7602713119119e-09
56                      10                       2                       0    1.00162100463628e-09    4.35511843134745e-09    3.38146827417882e-09
57                      12                       0                5.656854    1.37500780671216e-09    3.44488538088488e-10    2.23556193629451e-09
58                      12                       0                2.828427     1.7225383126479e-09    3.55798036051728e-10    5.24995856824145e-09
59                      12                       0                       0                       0                       0                       0
60                      14                       2                5.656854    4.86612323058691e-08    7.57940266785389e-07    2.02993660251477e-07
61                      14                       2                2.828427    1.67397051453704e-09    2.63454196903192e-08    1.36957085546389e-08
62                      14                       2                       0    8.39550036495193e-10    1.12214980820025e-08    8.79936121838122e-09
63                      16                       0                5.656854   -3.04145531535691e-11    4.41403212382326e-10    3.32138233834565e-09
64                      16                       0                2.828427   -3.80086107080372e-11    5.73415220842417e-10    7.36627601855961e-09
65                      16                       0                       0                       0                       0                       0
66                      18                       2                5.656854   -5.24565099298884e-08    7.42410178747281e-07    1.98964231793033e-07
67                      18                       2                2.828427   -1.81417685940152e-09    2.58206595736032e-08    1.34195179128123e-08
68                      18                       2                       0   -8.70995655602536e-10    1.10013309845785e-08    8.62265446304945e-09
69                      20                       0                5.656854   -1.36565544319315e-09    1.50799988987669e-10    2.19720319914679e-09
70                      20                       0                2.828427   -1.51947917464435e-09    1.27833228758539e-09    4.72314066311069e-09
71                      20                       0                       0                       0                       0                       0
72                      22                       2                5.656854   -7.67632944534034e-08    2.92435858632864e-07    7.73350620208825e-08
73                      22                       2                2.828427   -2.78994156457745e-09    1.06530440046804e-08    5.46576794637926e-09
74                      22                       2                       0   -9.37688923358377e-10    4.00528757266173e-09    3.11454549627717e-09
75                      24                       0                5.656854   -6.67274894167022e-10   -1.82105807560466e-11    4.71441021954919e-10
76                      24                       0                2.828427   -3.98308156202438e-10   -1.15709258268533e-12    5.05041285299288e-10
77                      24                       0                       0                       0                       0                       0
78                      26                       2                5.656854   -1.72311336109419e-08    3.47244579029296e-08    8.97350779279278e-09
79                      26                       2                2.828427   -5.96069116355528e-10    1.25082908440008e-09    6.29567128019112e-10
80                      26                       2                       0                       0                       0                       0
81                      28                       0                5.656854                       0                       0                       0
82                      28                       0                2.828427                       0                       0                       0
83                      28                       0                       0                       0                       0                       0
84                      30                       2                5.656854   -5.29200663631203e-10    7.47606811961975e-10    1.91065814324349e-10
85                      30                       2                2.828427                       0                       0                       0
86                      30                       2                       0                       0                       0                       0
87                       0                       4                5.656854    2.61176299967023e-11    3.22972449682365e-10     9.8591162554282e-11
88                       0                       4                2.828427                       0                       0                       0
89                       0                       4                       0                       0                       0                       0
90                       2                       6                5.656854    1.07189926660429e-07    9.83856318313974e-08    3.64794386428663e-08
91                       2                       6                2.828427    4.00939110347525e-09    3.64041345590691e-09     2.6352021857676e-09
92                       2                       6                       0    1.21892318115366e-09    1.13430866037584e-09    1.26180650606681e-09
93                       4                       4                5.656854    1.18708846438947e-08    1.63313102715731e-08    4.94672337688674e-09
94                       4                       4                2.828427    1.43653991044897e-08    1.99943972368215e-08    1.17701989834588e-08
95                       4                       4                       0    1.62398562733135e-10    2.27304945725763e-10    2.06107683855882e-10
96                       6                       6                5.656854    3.48569164245586e-06    5.21731958398758e-06    1.98072547317193e-06
97                       6                       6                2.828427    9.60171937213326e-08    1.41557890799062e-07    1.04191016604445e-07
98                       6                       6                       0    3.69966802262843e-08    5.36478285762436e-08    5.87110907033163e-08
99                       8                       4                5.656854    1.32859890786146e-07    3.16336977690332e-07    9.86257681773055e-08
100                       8                       4                2.828427    1.35751395162459e-07    3.19827897186402e-07    1.93306327710639e-07
101                       8                       4                       0     1.8296321994832e-09    4.36855670881254e-09    3.92147952964297e-09
102                      10                       6                5.656854    2.20122359958111e-05    6.65908047342837e-05    2.67021443287323e-05
103                      10                       6                2.828427    4.58296781650823e-07    1.36134905426476e-06    1.04657955307772e-06
104                      10                       6                       0     1.3913079379228e-07    4.03093812426845e-07    4.53173641155476e-07
105                      12                       4                5.656854    2.66583211133041e-07    1.60381599403469e-06    5.17676949629981e-07
106                      12                       4                2.828427    2.40598826211794e-07    1.40555613419927e-06    8.74726214871641e-07
107                      12                       4                       0    3.02768994234519e-09     1.7213305784984e-08    1.57734915265197e-08
108                      14                       6                5.656854     1.2493002116005e-05    0.000187905208786726    7.79937822136048e-05
109                      14                       6                2.828427    2.56351520682835e-07    3.40021330061958e-06    2.69571675670231e-06
110                      14                       6                       0    7.66122022386362e-08    9.04252172207939e-07    1.04286174043554e-06
111                      16                       4                5.656854   -1.03079396636992e-08    2.39375299430236e-06    7.79991737136521e-07
112                      16                       4                2.828427   -8.89688214224557e-09    2.05261427307133e-06     1.2891892613155e-06
113                      16                       4                       0   -6.79241897555883e-11    2.44986065751279e-08    2.26502631627975e-08
114                      18                       6                5.656854   -1.35336991626574e-05    0.000183274376958258    7.60343864254518e-05
115                      18                       6                2.828427   -2.78630677569267e-07    3.32864211567539e-06    2.63571679260712e-06
116                      18                       6                       0   -8.31536314384598e-08    8.88070068082643e-07    1.02318666580941e-06
117                      20                       4                5.656854   -2.64918702962676e-07     1.5415265038829e-06    4.98262073434309e-07
118                      20                       4                2.828427   -2.40534516663077e-07    1.35271289513814e-06    8.41443762057939e-07
119                      20                       4                       0   -3.01013496739234e-09    1.64635718364011e-08    1.51021582995499e-08
120                      22                       6                5.656854   -2.12622989374561e-05     6.2588761431795e-05    2.51709760829685e-05
121                      22                       6                2.828427    -4.4437399185499e-07    1.28340346169924e-06    9.86048209843813e-07
122                      22                       6                       0    -1.3556006446564e-07    3.82448176747203e-07    4.29239843846398e-07
123                      24                       4                5.656854   -1.25519240364611e-07    2.92972229960174e-07    9.18267666875405e-08
124                      24                       4                2.828427   -1.28442486916618e-07    2.96569670982097e-07    1.79368939355181e-07
125                      24                       4                       0   -1.72201023810907e-09      3.978385618912e-09    3.58427885688903e-09
126                      26                       6                5.656854   -3.17811112424061e-06    4.70013439549468e-06    1.79438755674851e-06
127                      26                       6                2.828427   -8.78825693718143e-08    1.28085817541286e-07    9.41822620396348e-08
128                      26                       6                       0   -3.37570773453538e-08    4.83727654950469e-08    5.29507280265175e-08
129                      28                       4                5.656854   -1.07618662497934e-08    1.46894835023882e-08    4.48341052943197e-09
130                      28                       4                2.828427   -1.29884467166262e-08     1.7944879097456e-08    1.05729983245535e-08
131                      28                       4                       0   -1.41588361596806e-10    1.96240464430199e-10    1.78317889633105e-10
132                      30                       6                5.656854   -9.58518142237555e-08    8.82300302642286e-08    3.28908746438324e-08
133                      30                       6                2.828427    -3.5824211587861e-09     3.2512327797607e-09    2.34972641491951e-09
134                      30                       6                       0   -1.02981602985643e-09    9.62444257432586e-10    1.06815086010325e-09
135                       0                       8                5.656854    1.18049543643789e-09    1.32515475554958e-08    6.31701375332645e-09
136                       0                       8                2.828427    1.53196410508711e-09    1.51038647949266e-08    1.41830896226797e-08
137                       0                       8                       0    2.23745830091329e-11    1.57673020422775e-10    2.35873434380827e-10
138                       2                      10                5.656854    3.48526963622192e-06    1.74936576745279e-06     1.2012368481061e-06
139                       2                      10                2.828427    9.82460804695608e-08     4.9899138449723e-08    6.56960202555875e-08
140                       2                      10                       0     3.9323079984292e-08    2.00803699764118e-08    3.86787937851514e-08
141                       4                       8                5.656854     1.1096604624568e-06    9.87157484033779e-07    4.83871666282288e-07
142                       4                       8                2.828427    9.20150568577013e-07    8.15281826451214e-07    7.71559517628048e-07
143                       4                       8                       0    1.05975893073389e-08    9.34011666233595e-09    1.30138661200316e-08
144                       6                      10                5.656854    0.000302659740495907    0.000258613928903011    0.000187786058878696
145                       6                      10                2.828427    4.25246776061183e-06    3.60532674612724e-06    4.95845119641068e-06
146                       6                      10                       0    9.22737576487926e-07    7.74956818854376e-07    1.53061375758511e-06
147                       8                       8                5.656854    2.43756987190289e-05    4.18258901089976e-05     2.1485245268923e-05
148                       8                       8                2.828427    1.26301954085809e-05    2.08765301902386e-05    2.05692675278573e-05
149                       8                       8                       0    9.49607629271729e-08    1.51463184599919e-07    2.17323880137854e-07
150                      10                      10                5.656854     0.00287530379390902     0.00591252822149503     0.00469249683702696
151                      10                      10                2.828427    2.44919473736332e-05    4.79739142380535e-05    7.06985612601374e-05
152                      10                      10                       0    3.56072090674493e-06    6.50780262831709e-06    1.35469553769111e-05
153                      12                       8                5.656854    6.35680846809805e-05    0.000295508379204905    0.000165960121808471
154                      12                       8                2.828427     2.4145847203112e-05    0.000106755753460215    0.000112250681277059
155                      12                       8                       0    1.45813051747714e-07    6.05169831956619e-07    9.10328081361553e-07
156                      14                      10                5.656854     0.00108136441645004      0.0153563342683389      0.0134268460650865
157                      14                      10                2.828427    1.03586347240605e-05    0.000113640723866499    0.000181557740032126
158                      14                      10                       0    1.59747299597428e-06    1.36509337499183e-05    3.00716872529715e-05
159                      16                       8                5.656854   -2.64581824742431e-06    0.000434869279851378    0.000249476711289509
160                      16                       8                2.828427   -8.47407190276648e-07    0.000151940218601819    0.000163149082098656
161                      16                       8                       0   -4.69342300248318e-09    8.36952849460201e-07    1.28278900352816e-06
162                      18                      10                5.656854    -0.00120725963870579      0.0151105024919521       0.013204678699754
163                      18                      10                2.828427   -1.14436266000773e-05     0.00011171162977226    0.000178036201449336
164                      18                      10                       0   -1.74587528609791e-06    1.34356302197855e-05    2.95662296192038e-05
165                      20                       8                5.656854   -6.29886442188579e-05    0.000283290633802243    0.000159014283751303
166                      20                       8                2.828427   -2.41892192916234e-05    0.000102787812546736    0.000107834720863921
167                      20                       8                       0   -1.46957678571561e-07    5.85596660924073e-07    8.78942277127039e-07
168                      22                      10                5.656854    -0.00279415288054745     0.00557070698956039     0.00441175736588226
169                      22                      10                2.828427   -2.38471018879274e-05    4.53267819251354e-05    6.63722025012742e-05
170                      22                      10                       0   -3.48272824315348e-06     6.2227548478885e-06    1.28767383437283e-05
171                      24                       8                5.656854   -2.25604716611957e-05    3.78710964513831e-05    1.95101830928797e-05
172                      24                       8                2.828427    -1.1827369153746e-05    1.91644305342309e-05    1.88188080978811e-05
173                      24                       8                       0   -9.01880373643926e-08    1.41349774241073e-07    2.01862913656335e-07
174                      26                      10                5.656854   -0.000270817516099044    0.000231954746553041    0.000167589297669678
175                      26                      10                2.828427   -3.87385779192981e-06     3.2872338960824e-06    4.46760756409154e-06
176                      26                      10                       0   -8.58004041090272e-07    7.20540818743873e-07    1.40613782028795e-06
177                      28                       8                5.656854   -9.91998014648395e-07    8.83133071909616e-07     4.3372205060022e-07
178                      28                       8                2.828427   -8.27099394681966e-07    7.32848243696523e-07    6.89868824089686e-07
179                      28                       8                       0    -9.6817185258541e-09    8.52780019528477e-09    1.17876663766718e-08
180                      30                      10                5.656854   -3.14395502333034e-06    1.60072935141655e-06    1.09263671267546e-06
181                      30                      10                2.828427   -8.88465216089449e-08    4.57673776660411e-08    5.94596072077803e-08
182                      30                      10                       0   -3.59360372033998e-08    1.85722862038803e-08    3.52234564275469e-08
183                       0                      12                5.656854    9.16197139308658e-09    6.21389837022546e-08    6.62567268146536e-08
184                       0                      12                2.828427    1.02791677139219e-08    6.94637669470063e-08    1.40690864061319e-07
185                       0                      12                       0    1.48455492954091e-10    1.03323152840582e-09    2.98598986712146e-09
186                       2                      14                5.656854      1.968181863636e-05    2.66455168449639e-06    6.79686962971434e-06
187                       2                      14                2.828427     4.7611110720696e-07    6.86068876452038e-08    3.19022025849743e-07
188                       2                      14                       0    1.64810642823237e-07    2.50810410443809e-08    1.61459850035629e-07
189                       4                      12                5.656854    2.50651085833218e-05    9.31010578296963e-06    1.11697477977037e-05
190                       4                      12                2.828427    1.37187400920224e-05    5.30906288575717e-06    1.17266935639837e-05
191                       4                      12                       0     1.0760041877927e-07    4.31805941317864e-08    1.33866767646971e-07
192                       6                      14                5.656854     0.00326687867821127    0.000633125035235475     0.00205945938238736
193                       6                      14                2.828427    3.04131578500821e-05    6.76586173726927e-06    3.61240655670679e-05
194                       6                      14                       0    4.62419551368818e-06    1.13255363098276e-06    7.81546408645966e-06
195                       8                      12                5.656854     0.00137169190746969     0.00107211804403434     0.00142010596554647
196                       8                      12                2.828427    0.000296489910755789    0.000229298992240825    0.000545616619168804
197                       8                      12                       0    1.16202578205976e-06    8.85262860887186e-07    2.88471668800705e-06
198                      10                      14                5.656854     -0.0210759569815852    -0.00638779298153623      -0.157042594608785
199                      10                      14                2.828427    0.000183347047809687    0.000109892437390407    0.000648367749929024
200                      10                      14                       0     1.7427423332278e-05     1.0172966916936e-05    7.49976206439569e-05
201                      12                      12                5.656854     0.00186460336288052     0.00561803673516665      0.0079181577863378