ITEM: TIMESTEP
0
ITEM: NUMBER OF ATOMS
422
ITEM: BOX BOUNDS ff ff ff
0.0000000000000000e+00 2.3200000000000000e+02
0.0000000000000000e+00 2.3200000000000000e+02
0.0000000000000000e+00 2.3200000000000000e+02
ITEM: ATOMS id xu yu zu fx fy fz
1        113.123116234408        115.960704856247         108.63403804057    -0.00454038376730795    5.54710483354003e-05     0.00894602955937674
2        118.849237790028        116.010979191592        108.678606949957    0.000927422676127233    -0.00160952172246427     0.00531941458992292
3        117.425654547218        116.011104666066        108.680163553301   -0.000356338881802534     0.00245466150089258      0.0109352935267366
4        114.595020685566        116.008900589553        108.680802646617      0.0061793431627522     0.00257110759931118      0.0109063612773528
5        116.657949616915        114.706599299309        108.613728449145     -0.0207259177766701      0.0171412334546531       0.047089568231293
6        115.278847612107        114.752313229952         108.66087462124      0.0251968131184507      0.0166977090778543      0.0403659766716063
7        115.265021766461        117.215702106821        108.649533901434      0.0256432657655218    -0.00986476392292297      0.0418816834174246
8        116.684236034081        117.210100439242        108.642499992659     -0.0172839741394346    -0.00903819631987932      0.0389196091631437
9        114.492779141588        113.523468462006        108.631876220831      0.0318618835332123     -0.0415780605721898       0.172506425375056
10        117.429926899197        113.520774820351        108.626227416465     -0.0546919254021021     -0.0407909398895084       0.167046418647052
11        114.537256070305        118.445738171425        108.681246519532      0.0286817166724579      0.0156430001816359       0.143750736714837
12        117.452376726655        118.421017430178           108.653570616     -0.0504066926518053      0.0169087998291239       0.161223246870051
13          113.1172440257        113.552377353362        108.646786765464     -0.0301251970618523     -0.0312686125620225       0.111818378964323
14        113.164482944637        118.446588898798        108.698888136524      -0.023664958806163      0.0129600861640915      0.0984478024357587
15        118.858972326961        113.576196394365        108.664858100793      0.0115302931912309      -0.029109927646143        0.11129293991928
16        118.823302746587        118.387499445671        108.634050975091      0.0184274357410625      0.0149699924825963       0.134155024621563
17        112.400818087204        117.168342192705        108.630876249065     -0.0084054607004473     0.00163714553515494      0.0231079760717834
18        112.379529439022        114.721580195346        108.607154380283     -0.0109015309446131     0.00802782000189778       0.028887454800075
19        119.596225359692        114.828031275271        108.706458162999      0.0151449303601095     0.00552515924806646      0.0126249021933826
20        119.541017584804        117.198296852736        108.653683609776      0.0191327584098229     0.00107556222172751      0.0218768768070568
21        120.952193931137        114.821493994336        108.653912908513       0.132106754756021       0.122837915801485      0.0360634846223495
22        120.945256103804        117.150752971129        108.649318741553       0.128157229481615      -0.021704623601196      0.0301365700943151
23        110.990937792616        114.784770948948        108.627166119455     -0.0107897652569504       0.126461588577459      0.0685920367165708
24        111.059254756203        117.189284715332        108.697826743058     -0.0142595491208133      -0.018063993121197      0.0436792679832848
25        121.583678240188        115.988948857566        108.653805779448     -0.0574582390254998     -0.0260979057124547     0.00357848585988317
26        110.423439638755        116.017499042948        108.693603064283    -0.00846343638496578     -0.0289926333482101     -0.0127480560288302
27        121.645857820895        118.222583915997        108.693515775071      -0.167649426107499     -0.0423825061754912       0.171947625561452
28        121.568105164398        113.752624447393        108.611356877698      -0.190989004978973     -0.0872120295076736       0.188353525689294
29        110.365325049376        118.180135785944        108.662364298648      0.0263737739424686     -0.0534462168097964       0.151357077840219
30         110.36747610871         113.79008003518         108.66010911845      0.0296350962313751     -0.0803490450193077       0.142166693192444
31         112.62895219299         112.64454017084        108.685939370747     -0.0156828991395749       0.025825728494709      0.0112783030062728
32        112.587779497152        119.345159317762        108.651529996552     -0.0152907635450227      0.0165903880164874     0.00626728847086373
33        119.395128044483        112.637078246163        108.671668511531      0.0617799988004315      0.0274820660195891     0.00504555461037913
34         119.40335434033        119.387096393577        108.686658133188      0.0573505850833753      0.0151889966952569      0.0013002763960916
35        114.942152749529        112.548826740541        108.636720176662     0.00510835150542858      0.0143001331280027   -0.000722100897038233
36         114.96553790649        119.411834943949        108.666966797808     0.00460426308435189       0.013171147226848    -0.00472518974801966
37        117.004514226421        112.557547212138        108.643376302399      0.0226989224923615      0.0147059558668687    -0.00130270079640093
38        117.027397289582        119.420053322636        108.673120832051       0.020846214661219      0.0128754357315986    -0.00566729209979937
39                     100                     100              105.656854       0.212170123591263       0.213988782709096      -0.975679775357691
40                     100                     100              102.828427       0.432012017897779       0.430420516227585   -0.000375806712638222
41                     100                     100                     100       0.212144947234423       0.213446274971165       0.976315835438265
42                     102                     102              105.656854      -0.344492877415346      -0.347599707552053       -0.27797885744228
43                     102                     102              102.828427     -0.0509006682104043     -0.0483016095561827    0.000685568109075281
44                     102                     102                     100      -0.344482267423943      -0.346483806201992        0.27685730461779
45                     104                     100              105.656854      0.0957631977135495       0.960103142253793      -0.808936560309619
46                     104                     100              102.828427      -0.063743893370255       0.726674553761699   -0.000276150958244367
47                     104                     100                     100      0.0961364198535103       0.959461908110668       0.809371843922146
48                     106                     102              105.656854      -0.149060691789542      -0.514950620831226      -0.381462188928686
49                     106                     102              102.828427       0.142169305679076       0.066561228505512    0.000376180374017131
50                     106                     102                     100      -0.150086371795481       -0.51377222292832       0.380908361748789
51                     108                     100              105.656854       0.109505368634396        1.06007825299603      -0.801907937249915
52                     108                     100              102.828427      -0.111501998224374       0.639883142514791    0.000253439806231197
53                     108                     100                     100       0.110564399996387        1.06002584772506       0.801434406874526
54                     110                     102              105.656854      -0.143059665395037      -0.581802742239301      -0.373828458374861
55                     110                     102              102.828427       0.147851846337101       0.134745794370198   -0.000963691978328882
56                     110                     102                     100       -0.14546833011643      -0.582567236173517       0.375484858683136
57                     112                     100              105.656854       0.131661031033447        1.10835859633306      -0.810683017224393
58                     112                     100              102.828427      -0.135449451848319       0.589505801073406     0.00116480414734371
59                     112                     100                     100       0.132824927379968        1.10981629910368       0.808702081244668
60                     114                     102              105.656854      -0.163830793944338      -0.618656587211567      -0.361351746106329
61                     114                     102              102.828427        0.16876296518302       0.174718238462498    -0.00263611862962087
62                     114                     102                     100      -0.165285712043129      -0.622612896797714       0.365714431905687
63                     116                     100              105.656854       0.166637040070551        1.14385996037633      -0.821240190369082
64                     116                     100              102.828427      -0.170815599376035       0.552316543874521     0.00165808076543129
65                     116                     100                     100       0.166620914916522        1.14623643699956       0.818451024200986
66                     118                     102              105.656854      -0.209617812387334      -0.650957834716642      -0.347923807616068
67                     118                     102              102.828427       0.214455948004518       0.208040153262017    -0.00260656717388598
68                     118                     102                     100       -0.20810053616576      -0.654848999720704       0.352249036214667
69                     120                     100              105.656854       0.223272474010653        1.18253049477334      -0.835253265173683
70                     120                     100              102.828427      -0.228691209588785       0.512924774798971     0.00114503432938896
71                     120                     100                     100       0.222098304801429        1.18394549626564       0.833296958858179
72                     122                     102              105.656854      -0.288807227394954      -0.688158556975177      -0.330297880235809
73                     122                     102              102.828427       0.293605052225078       0.244455339675565   -0.000914798234946959
74                     122                     102                     100      -0.286416407671937      -0.688821824493375        0.33189684440837
75                     124                     100              105.656854       0.326358218345343        1.23681283670567      -0.852116164124994
76                     124                     100              102.828427      -0.323005302875986       0.459417346809181     0.00023754756392761
77                     124                     100                     100       0.325316529110606        1.23672769125623        0.85165938592899
78                     126                     102              105.656854      -0.461632906146948      -0.727856986273153      -0.332012428790172
79                     126                     102              102.828427       0.397193230154754       0.281833959298623    0.000395968991282877
80                     126                     102                     100      -0.460649551131378      -0.726643313955836       0.331443317989259
81                     128                     100              105.656854       0.708229706384532        1.34079618511847        -0.7547520026454
82                     128                     100              102.828427      -0.280894364754607       0.396008680078987   -0.000277468614729726
83                     128                     100                     100       0.707872341702504        1.34015005579004       0.755183043560939
84                     130                     102              105.656854       -1.34053803960506      -0.708803753464632      -0.755397512848022
85                     130                     102              102.828427      -0.395910974290018       0.281077196604191    0.000680855706170299
86                     130                     102                     100       -1.34056545260498      -0.707693628269521       0.754292134387312
87                     100                     104              105.656854       0.959103619833258       0.100051509304329       -0.80841835611006
88                     100                     104              102.828427       0.727666929077543     -0.0672351048978986    -0.00104589079891302
89                     100                     104                     100       0.958540594309208      0.0987275044484238        0.81015078120415
90                     102                     106              105.656854      -0.513805760985338      -0.157121684756956      -0.382807035419779
91                     102                     106              102.828427      0.0652239996928426       0.148192607635923     0.00216245222223698
92                     102                     106                     100      -0.512456933749999      -0.154122456968032        0.37932782292586
93                     104                     104              105.656854       0.247169220832398       0.252940589239272      -0.388495247353016
94                     104                     104              102.828427      -0.179941079809234      -0.184429012997249    -0.00132181802626574
95                     104                     104                     100       0.247299439583723       0.250461582173631       0.390590691492105
96                     106                     106              105.656854      -0.233042990038642      -0.245053867448092      -0.504721352444601
97                     106                     106              102.828427       0.225162944835629        0.23337362077384     0.00263959238365053
98                     106                     106                     100      -0.234047300082076       -0.23910283469701       0.500508461997491
99                     108                     104              105.656854       0.172898285124343       0.338614969691413      -0.375221963896372
100                     108                     104              102.828427      -0.176991520913219      -0.268713195186328   -0.000271315665113393
101                     108                     104                     100       0.175969424955574       0.336675449818876       0.375558127594762
102                     110                     106              105.656854      -0.181005977916328       -0.29288275274921      -0.490011948494533
103                     110                     106              102.828427       0.191638628814987       0.285402143424186    -0.00117320707068541
104                     110                     106                     100       -0.19061918359602      -0.291661440668691       0.492005157864633
105                     112                     104              105.656854        0.16658012082732       0.379034717691542      -0.390968471078822
106                     112                     104              102.828427      -0.173884554752346      -0.314241449344746     0.00312433668799011
107                     112                     104                     100       0.171596721835989       0.383284815616095       0.385786381177536
108                     114                     106              105.656854      -0.187748252341139      -0.306693448018282      -0.466641568086871
109                     114                     106              102.828427       0.197289257811521       0.311289583183468    -0.00872260125261688
110                     114                     106                     100      -0.195016830947648      -0.322082056650361       0.481650584839607
111                     116                     104              105.656854       0.198366669142833       0.404828197034653      -0.406494706949324
112                     116                     104              102.828427      -0.203531599160534      -0.343895658574231     0.00533917121259283
113                     116                     104                     100       0.198269756920816       0.413774050214618       0.397708189528037
114                     118                     106              105.656854      -0.242043325741499      -0.329391719065833      -0.450853306785241
115                     118                     106              102.828427       0.243921202953936       0.334435551611544    -0.00854561469739047
116                     118                     106                     100      -0.234398530776786      -0.344367761895718       0.465622775608038
117                     120                     104              105.656854       0.260977550190748       0.436052032817767      -0.421655507862618
118                     120                     104              102.828427      -0.265234983005943      -0.372976124736773      0.0030091406630848
119                     120                     104                     100       0.255911139325527       0.440049363575247       0.416615261282764
120                     122                     106              105.656854      -0.319124604680686      -0.363600051366959      -0.438349437588698
121                     122                     106              102.828427       0.320284224065697       0.358066390073285   -0.000900843076284594
122                     122                     106                     100      -0.309674795018546      -0.361796348126452       0.440023642921746
123                     124                     104              105.656854       0.368222548594111       0.464189453883874      -0.438550136356069
124                     124                     104              102.828427      -0.362607955985625       -0.39812460950749   -0.000354416081441644
125                     124                     104                     100       0.365254174041122       0.462094378114991       0.438971533233823
126                     126                     106              105.656854      -0.465897140903297       -0.36957599010969      -0.441599684371428
127                     126                     106              102.828427       0.400982513667329       0.361784989668179     0.00272381347535463
128                     126                     106                     100        -0.4651023531771      -0.363514657983875       0.437334796127947
129                     128                     104              105.656854       0.727881586553752       0.462510676182181      -0.330676265268809
130                     128                     104              102.828427      -0.282558986539595      -0.397189715677004    -0.00133266024670552
131                     128                     104                     100       0.727810267302151       0.460021700575139        0.33276478408679
132                     130                     106              105.656854       -1.23646559174926      -0.328388684533363      -0.853589145995946
133                     130                     106              102.828427      -0.458879296536506       0.323957281931063      0.0021499768319552
134                     130                     106                     100       -1.23785258666651      -0.325419978772225       0.850156737959393
135                     100                     108              105.656854        1.06301623345795        0.11667885146389      -0.799930464517884
136                     100                     108              102.828427       0.638218666884175      -0.116937553390982    -0.00247450158863203
137                     100                     108                     100         1.0606311745626       0.114249547085825        0.80395498583534
138                     102                     110              105.656854       -0.58991882369649      -0.155682814436099      -0.379153285547826
139                     102                     110              102.828427         0.1386703513565       0.156356157469765     0.00534294953205003
140                     102                     110                     100      -0.583758334040415      -0.150540555431962       0.370551991565329
141                     104                     108              105.656854       0.338242369323973       0.189583108332165       -0.37103304050122
142                     104                     108              102.828427      -0.266998297320732      -0.187733276061287    -0.00482854937271144
143                     104                     108                     100       0.334712758752556       0.182160065038866       0.378845104534183
144                     106                     110              105.656854      -0.297908834521185      -0.218746503494847      -0.506506592471082
145                     106                     110              102.828427       0.283036037125548       0.210256661602296      0.0111819151663677
146                     106                     110                     100      -0.288435884631301      -0.199344692074689       0.485406784763064
147                     108                     108              105.656854       0.221578780330362       0.250701726727439      -0.358631828489626
148                     108                     108              102.828427      -0.228637859238995      -0.244167997954494     -0.0048785944906329
149                     108                     108                     100       0.227892164729065       0.235738673349134        0.36804996673929
150                     110                     110              105.656854      -0.179606071171717      -0.256191498672318      -0.490552705246469
151                     110                     110              102.828427       0.215696186648889       0.242775473197676     0.00456554397871906
152                     110                     110                     100      -0.221620150028446       -0.23239914902878       0.475379456441084
153                     112                     108              105.656854       0.175321872731768       0.256184917809255       -0.39349043500067
154                     112                     108              102.828427       -0.19796702641235      -0.269046030053104     0.00834752832823188
155                     112                     108                     100       0.201169339862159       0.267156052792487       0.377907496914197
156                     114                     110              105.656854      -0.177964160226031      -0.184014617853352      -0.384506958998651
157                     114                     110              102.828427       0.209160618184488        0.24617925907578     -0.0269704473583548
158                     114                     110                     100      -0.213436038945179      -0.249159136154303       0.469975669122975
159                     116                     108              105.656854        0.22095546667809       0.250124243077518      -0.425677438822656
160                     116                     108              102.828427      -0.226491328251926      -0.281789882739438      0.0190630353681073
161                     116                     108                     100       0.220358585300006       0.285982898210416       0.388929728532928
162                     118                     110              105.656854      -0.287426539582609      -0.197254979004513      -0.369030637251818
163                     118                     110              102.828427       0.267248249645566       0.257888842971278     -0.0261228883711548
164                     118                     110                     100      -0.249624721187748      -0.260183585861651       0.452317159572947
165                     120                     108              105.656854       0.300177996281384        0.29153091607383      -0.427642943626315
166                     120                     108              102.828427      -0.290540411933356      -0.304330431288502     0.00767904804259998
167                     120                     108                     100       0.274047440140236        0.30090975285498       0.413044588460909
168                     122                     110              105.656854      -0.355379566153848      -0.293529072222447      -0.436467881435244
169                     122                     110              102.828427       0.333633845119019       0.278013186009176     0.00592834831711351
170                     122                     110                     100      -0.315115053435415       -0.26597575583041       0.418448773140687
171                     124                     108              105.656854       0.374494026145233       0.321144289196203      -0.430843588273665
172                     124                     108              102.828427      -0.367972087374947      -0.316463624119656    -0.00526922590398248
173                     124                     108                     100       0.368921664967321       0.305495366696953        0.44064596937289
174                     126                     110              105.656854      -0.436463605964051       -0.27465598352875      -0.434954463761672
175                     126                     110              102.828427       0.380068324876422       0.268038131453936       0.011402748566812
176                     126                     110                     100      -0.446806566729796      -0.255255027340927       0.413895982552647
177                     128                     108              105.656854       0.687960536090848       0.293698932724013      -0.326427837671921
178                     128                     108              102.828427      -0.246535733304296       -0.29529845035369    -0.00484953098561984
179                     128                     108                     100       0.691665704856501       0.286321071859332       0.334174196006002
180                     130                     110              105.656854       -1.17941891497467      -0.227924171285578      -0.838997667163326
181                     130                     110              102.828427      -0.512935538911536       0.231055584227506     0.00528957877774884
182                     130                     110                     100       -1.18558662782536      -0.222890014870477       0.830554640875254
183                     100                     112              105.656854        1.11842822859339       0.138166233524998      -0.806379642023466
184                     100                     112              102.828427       0.583368652191724      -0.140134785919598    -0.00443378478181084
185                     100                     112                     100        1.11277933602245       0.135808021156579       0.813531126141933
186                     102                     114              105.656854      -0.639132602848368      -0.170562976395494      -0.371547922663823
187                     102                     114              102.828427       0.185136762565348       0.173108232742938     0.00870275747767524
188                     102                     114                     100      -0.626647716572236      -0.167736928634839       0.357420793827717
189                     104                     112              105.656854       0.401389267141066       0.187489667931122      -0.374641806265224
190                     104                     112              102.828427      -0.322188060149346      -0.185673569241893       -0.01177605432928
191                     104                     112                     100       0.384902547461986       0.177585380368088       0.395046301515753
192                     106                     114              105.656854      -0.355342559800809      -0.209057292573065      -0.516871914024704
193                     106                     114              102.828427       0.321851909446704       0.208031922459901      0.0230912185795335
194                     106                     114                     100      -0.322533209322231      -0.199744487349308       0.466591653298366
195                     108                     112              105.656854       0.281648723008702       0.255804147575118      -0.309204019442441
196                     108                     112              102.828427      -0.262059140236521       -0.22317613853173     -0.0211665805520046
197                     108                     112                     100       0.261289934469162       0.210974878674074       0.389147499708205
198                     110                     114              105.656854       -0.15967565022373      -0.199547832644352      -0.745218863568154
199                     110                     114              102.828427       0.223742524902951       0.226219747461032      0.0152486071848215
200                     110                     114                     100      -0.239489233229659      -0.220133315563071       0.456640418764633
201                     112                     112              105.656854      0.0982190600010005       0.227767219980467      -0.429335547160556