ITEM: TIMESTEP
0
ITEM: NUMBER OF ATOMS
422
ITEM: BOX BOUNDS ff ff ff
0.0000000000000000e+00 2.3200000000000000e+02
0.0000000000000000e+00 2.3200000000000000e+02
0.0000000000000000e+00 2.3200000000000000e+02
ITEM: ATOMS id xu yu zu fx fy fz
1        113.121222160261          115.9588107821        108.632143966423    -0.00458472860386676    0.000157597367585525     0.00912541450593046
2        118.809110676039        115.970852077603        108.638479835968     0.00180977212489113   -0.000181285995017688      0.0102700293599422
3          117.3714664874        115.956916606248        108.625975493483    -0.00133912967929905     0.00471842621463571         0.0166476368336
4        114.590806829432        116.004686733419        108.676588790483     0.00619178286292562     0.00272737282506648      0.0114716359315798
5        116.688545503576        114.737195185971        108.644324335807      -0.018385404238818      0.0165310563838981      0.0416547904965207
6        115.291575886513        114.765041504357        108.673602895645      0.0236738345286735      0.0158822566445581      0.0363063162404833
7        115.314878413081        117.265558753441        108.699390548054      0.0218454046025386    -0.00666134250921567      0.0308760709233986
8        116.730805494445        117.256669899606        108.689069453023     -0.0159290830157338    -0.00789861223985372      0.0353427628958112
9        114.532911693946        113.563601014363        108.672008773188       0.029686336956633     -0.0346213704264715       0.148243170812114
10         117.48205374686        113.572901668015        108.678354264129     -0.0466670185452473      -0.033664171874076       0.148289800632812
11        114.543916420688        118.452398521808        108.687906869915      0.0285349060770817      0.0153948878163713       0.138765919123232
12        117.430870563024        118.399511266548        108.632064452369     -0.0544604415160795      0.0173239267975181       0.173475759718607
13        113.140838163607        113.575971491269        108.670380903372     -0.0275240884520374     -0.0288849037238705       0.106835492955232
14         113.15841475371         118.44052070787        108.692819945596     -0.0247899544477471      0.0130694466150396       0.100581565778423
15        118.847221534042        113.564445601446        108.653107307874      0.0134780936505692     -0.0308754908873652       0.116926242268056
16        118.798269780578        118.362466479663        108.609018009082      0.0227512417134966      0.0160394609955806       0.153280336363851
17        112.432203980899          117.1997280864         108.66226214276    -0.00842606590577262      0.0017838468856197      0.0209122902791086
18        112.433304434647        114.775355190971        108.660929375907    -0.00875162419269441     0.00749979155250953      0.0222019527608485
19        119.581464839526        114.813270755106        108.691697642834      0.0162802686219995     0.00605557089566012      0.0152660576267386
20        119.557480643715        117.214759911646        108.670146668687      0.0182062702352509     0.00180112085414613      0.0191867399210745
21        120.966094159537        114.835394222735        108.667813136913       0.132563601425615       0.125302129302416      0.0319237911961502
22        120.924992845002        117.130489712327        108.629055482751       0.129718917887818     -0.0221840606790927      0.0354381123198758
23        110.997512301428        114.791345457759        108.633740628267     -0.0120687156501369       0.127463694781218      0.0658055743497992
24        111.001506244081        117.131536203209        108.640078230935     -0.0122416616738489     -0.0200355152491179      0.0582708952009111
25        121.575748448503        115.981019065882        108.645875987764     -0.0580185675107199     -0.0258523471331103     0.00375760805673467
26         110.41352357821        116.007582982402        108.683687003738    -0.00860977249534555     -0.0287324855518088     -0.0121798912337925
27        121.623138062116        118.199864157218        108.670796016292      -0.171976513964851     -0.0440982011644987       0.180666781733894
28        121.596766866002        113.781286148996        108.640018579301      -0.186891286939121     -0.0821626006291407       0.179768792517464
29        110.342171477523        118.156982214092        108.639210726796      0.0247128475042768     -0.0560620057664191        0.16556352887151
30        110.368970270065        113.791574196534        108.661603279804      0.0299250384897003     -0.0781388756633467       0.140212002503009
31        112.625598533659         112.64118651151        108.682585711417     -0.0158710275348187      0.0259952013968649      0.0116167735215678
32         112.60876953718         119.36614935779        108.672520036581     -0.0150709984297631      0.0157974013513286      0.0060480139951984
33        119.421088789528        112.663038991207        108.697629256576      0.0624363464911927      0.0269126207208228     0.00435120832459077
34        119.396307880007        119.380049933254        108.679611672865      0.0570406902077549      0.0148240066357859     0.00134647730470355
35         114.91752446247        112.524198453483        108.612091889604     0.00550879948127904       0.013738320482457   -0.000784519875826072
36        114.937073897832        119.383370935291         108.63850278915     0.00457708768577924      0.0127361343945723    -0.00480356686150898
37        117.052700972502         112.60573395822        108.691563048481      0.0209115351808254      0.0148996118422302    -0.00251537218209023
38        116.976591871119        119.369247904172        108.622315413588       0.021840524703906      0.0118265468779772    -0.00468865671042048
39                     100                     100              105.656854        0.21215359177527       0.213969947338854      -0.975677173969442
40                     100                     100              102.828427       0.432027839374351       0.430438412035308   -0.000373227379055207
41                     100                     100                     100       0.212131227250021        0.21343088778343        0.97630949660168
42                     102                     102              105.656854      -0.344467624933029      -0.347569719393311      -0.277981406577039
43                     102                     102              102.828427     -0.0509238918822204     -0.0483289444443899     0.00067921149741569
44                     102                     102                     100       -0.34446337181058      -0.346461796007887       0.276869133360403
45                     104                     100              105.656854       0.095746642791689       0.960071360561962      -0.808933680791348
46                     104                     100              102.828427      -0.063728369163626       0.726703837518039   -0.000270937051495644
47                     104                     100                     100      0.0961235801078861       0.959437909988038       0.809361439476346
48                     106                     102              105.656854      -0.149037298062413      -0.514897350361351       -0.38146416405532
49                     106                     102              102.828427       0.142148626358851      0.0665150159212636     0.00036391959766198
50                     106                     102                     100      -0.150070764134463      -0.513737524226795       0.380927660146071
51                     108                     100              105.656854       0.109497011227039        1.06003286746066      -0.801904481990211
52                     108                     100              102.828427      -0.111493906458697       0.639923956960078    0.000261201755966148
53                     108                     100                     100       0.110557920733368        1.05999373204948       0.801420196080407
54                     110                     102              105.656854      -0.143056566418081      -0.581729546090044      -0.373830953337198
55                     110                     102              102.828427       0.147848144834402       0.134684493289786   -0.000980226771137306
56                     110                     102                     100      -0.145465575082863      -0.582523486970512       0.375509407986871
57                     112                     100              105.656854       0.131668595316959        1.10831071515191      -0.810677512786388
58                     112                     100              102.828427      -0.135455003246517       0.589549430560881     0.00117217610735985
59                     112                     100                     100       0.132829035494683        1.10978207346329       0.808687237108825
60                     114                     102              105.656854      -0.163854074563508      -0.618595920961034      -0.361359987384878
61                     114                     102              102.828427       0.168780186484704       0.174663621976835    -0.00264796845827746
62                     114                     102                     100       -0.16529785878407      -0.622572393623987       0.365736449850543
63                     116                     100              105.656854       0.166652892486935        1.14382329895086      -0.821231878955946
64                     116                     100              102.828427      -0.170829694782502        0.55235238073929     0.00166208821331256
65                     116                     100                     100       0.166632795338101        1.14620713819816       0.818438959776604
66                     118                     102              105.656854      -0.209635391144191      -0.650916485301313      -0.347935536793207
67                     118                     102              102.828427       0.214474355497748       0.207999152480116    -0.00261297820868449
68                     118                     102                     100      -0.208117784276965      -0.654817366169194       0.352266073865633
69                     120                     100              105.656854        0.22328924385227        1.18250004522917      -0.835244791689589
70                     120                     100              102.828427      -0.228708042354915       0.512953867683288     0.00114750256009028
71                     120                     100                     100       0.222113936184175         1.1839224728779        0.83328759245614
72                     122                     102              105.656854      -0.288831961532371      -0.688114118713402      -0.330306424766875
73                     122                     102              102.828427        0.29362944112934       0.244418607534632   -0.000922162116951941
74                     122                     102                     100      -0.286438324211348      -0.688797547832305       0.331911037623534
75                     124                     100              105.656854       0.326381525595291        1.23679178937287       -0.85210780371065
76                     124                     100              102.828427      -0.323027085500715       0.459437134399299    0.000238067602769327
77                     124                     100                     100       0.325335318280997        1.23671274586694       0.851653598093586
78                     126                     102              105.656854      -0.461668985046912       -0.72783868533024      -0.332023259251894
79                     126                     102              102.828427       0.397224806593943       0.281817048939159    0.000395184977178655
80                     126                     102                     100      -0.460674478560952      -0.726632129200649       0.331449745388677
81                     128                     100              105.656854       0.708251095004235        1.34079195911917      -0.754743236439622
82                     128                     100              102.828427      -0.280914619635673       0.396014554850515   -0.000280708647327131
83                     128                     100                     100       0.707889714013173        1.34014498031259        0.75518230597618
84                     130                     102              105.656854        -1.3405602926428      -0.708808818217203       -0.75540884503735
85                     130                     102              102.828427      -0.395889410509168       0.281078640646629    0.000686530182685542
86                     130                     102                     100       -1.34058377844356      -0.707694032222249       0.754290788877153
87                     100                     104              105.656854       0.959072251315376       0.100028079653988       -0.80841586583358
88                     100                     104              102.828427       0.727695669496486     -0.0672137380545174    -0.00103954655592464
89                     100                     104                     100       0.958517227533569       0.098710397152991       0.810139017536078
90                     102                     106              105.656854      -0.513752308135704      -0.157082898730793      -0.382807716170733
91                     102                     106              102.828427      0.0651781874761593       0.148159653389188     0.00214708551149553
92                     102                     106                     100      -0.512423099670576      -0.154098717934005       0.379350420142338
93                     104                     104              105.656854       0.247128110994159       0.252888980555672      -0.388494493641999
94                     104                     104              102.828427      -0.179905814304802      -0.184385102314961    -0.00130642263942816
95                     104                     104                     100       0.247273462901207       0.250429573301479       0.390568024844183
96                     106                     106              105.656854      -0.232970190528106      -0.244955825448731      -0.504713030311888
97                     106                     106              102.828427       0.225108231697797       0.233299613448194     0.00260112493668393
98                     106                     106                     100      -0.234013068278227       -0.23905659809091       0.500552821191019
99                     108                     104              105.656854       0.172865952821489       0.338517802522214      -0.375225413559686
100                     108                     104              102.828427      -0.176966203775294       -0.26863746030795   -0.000242247936370817
101                     108                     104                     100       0.175953091235001       0.336625713796342       0.375522054817257
102                     110                     106              105.656854      -0.180969406383062      -0.292686538263087      -0.489983489571879
103                     110                     106              102.828427       0.191618187758266       0.285277022047391    -0.00124340341226598
104                     110                     106                     100      -0.190610148122156      -0.291594679522768       0.492070774262885
105                     112                     104              105.656854       0.166602054237333       0.378916402309707      -0.390969914047639
106                     112                     104              102.828427      -0.173897871425671       -0.31415318242825     0.00315709280078614
107                     112                     104                     100       0.171604591033693       0.383229585192578       0.385746270531126
108                     114                     106              105.656854      -0.187864761908536       -0.30654150765579      -0.466642239754495
109                     114                     106              102.828427       0.197346424213628       0.311184412404339    -0.00877358881158617
110                     114                     106                     100      -0.195044550513544      -0.322024326054557       0.481707548758152
111                     116                     104              105.656854       0.198408255121576       0.404774286835863       -0.40647616176578
112                     116                     104              102.828427      -0.203561929061165      -0.343838485157233     0.00535288675563422
113                     116                     104                     100       0.198291322960795       0.413732113630215       0.397678474716119
114                     118                     106              105.656854      -0.242024229037099      -0.329383318839268      -0.450903806052202
115                     118                     106              102.828427       0.243935818819653       0.334380142573982     -0.0085610528655734
116                     118                     106                     100         -0.234423080669      -0.344329950945964       0.465663360288047
117                     120                     104              105.656854       0.260981505974463        0.43598300005626      -0.421645855785776
118                     120                     104              102.828427      -0.265252286727408       -0.37292100052309     0.00302649276959525
119                     120                     104                     100       0.255933232609394       0.440015738443703       0.416588518233217
120                     122                     106              105.656854      -0.319156003745203      -0.363416646187658       -0.43832383979473
121                     122                     106              102.828427       0.320320922057634       0.357975887162897   -0.000959193458378927
122                     122                     106                     100      -0.309708788925395      -0.361763587299012       0.440069096619973
123                     124                     104              105.656854       0.368278506691123       0.464126595263058      -0.438543372041587
124                     124                     104              102.828427      -0.362652428877518      -0.398081613971594   -0.000338081963258267
125                     124                     104                     100       0.365286906059289       0.462072845228255       0.438951423968927
126                     126                     106              105.656854      -0.466007556656431      -0.369539589529906      -0.441615402533913
127                     126                     106              102.828427       0.401057893756077       0.361760718436121     0.00270699756509276
128                     126                     106                     100      -0.465147734456622      -0.363507259709515       0.437354215819487
129                     128                     104              105.656854       0.727927717079387       0.462510157616171      -0.330659758870024
130                     128                     104              102.828427      -0.282598493896549      -0.397185493384552    -0.00133553427898187
131                     128                     104                     100       0.727839526270244       0.460019469838167       0.332761047442084
132                     130                     106              105.656854       -1.23650035001131       -0.32841516165385      -0.853613716377199
133                     130                     106              102.828427      -0.458845358786898       0.323971873552348     0.00216170222278015
134                     130                     106                     100       -1.23787882890101      -0.325429170875332       0.850153422092288
135                     100                     108              105.656854         1.0629615240523       0.116658614384478      -0.799928732683707
136                     100                     108              102.828427       0.638266372114488      -0.116920027359331    -0.00246233673184041
137                     100                     108                     100        1.06059509732425       0.114236917935343       0.803935974384074
138                     102                     110              105.656854      -0.589819198012181      -0.155654365966847      -0.379149786388339
139                     102                     110              102.828427       0.138591499331308       0.156334495415677     0.00531406687232516
140                     102                     110                     100      -0.583705974609918      -0.150527896504676       0.370587950329222
141                     104                     108              105.656854       0.338141984168674       0.189513106043791      -0.371041195290768
142                     104                     108              102.828427      -0.266921805731017      -0.187680736903081    -0.00479022524889397
143                     104                     108                     100       0.334664132001576       0.182128104034009       0.378800668035537
144                     106                     110              105.656854      -0.297702407103265      -0.218609047124929       -0.50646071941307
145                     106                     110              102.828427       0.282906405293989       0.210173005612047       0.011082025908177
146                     106                     110                     100      -0.288370851319313      -0.199306662685162       0.485493976489802
147                     108                     108              105.656854       0.221432847269991        0.25049152347365      -0.358684231298536
148                     108                     108              102.828427      -0.228556582106236      -0.244041989510875     -0.0047785813307867
149                     108                     108                     100       0.227853827909997        0.23567643786703        0.36796393744992
150                     110                     110              105.656854      -0.179365646543404       -0.25587400372798      -0.490358375688633
151                     110                     110              102.828427       0.215607552136441       0.242584477348663     0.00430572906850974
152                     110                     110                     100       -0.22159938514149      -0.232333850638151       0.475531012984241
153                     112                     108              105.656854       0.175343794260181       0.255719368989085      -0.393653480023715
154                     112                     108              102.828427      -0.197998586330923      -0.268864866115239     0.00850420156152292
155                     112                     108                     100       0.201187110721007       0.267082983694027        0.37780121043219
156                     114                     110              105.656854      -0.178814224987095      -0.183584712432448      -0.384171669076034
157                     114                     110              102.828427       0.209358321668414       0.246016144464072     -0.0272194644987186
158                     114                     110                     100      -0.213500856355686       -0.24911567555215       0.470102747299486
159                     116                     108              105.656854       0.221256001457048       0.250163248805301      -0.425527723496791
160                     116                     108              102.828427       -0.22658966088004      -0.281730025458417       0.019079040270892
161                     116                     108                     100        0.22040275703379       0.285942426089642       0.388864807411953
162                     118                     110              105.656854      -0.286698956003338      -0.198027388334459      -0.370297939859687
163                     118                     110              102.828427       0.267194145091289       0.257850466137835     -0.0261314966715558
164                     118                     110                     100      -0.249657690627364      -0.260178517553537       0.452393552893776
165                     120                     108              105.656854       0.299872565700578       0.291255008151918      -0.427689860989769
166                     120                     108              102.828427      -0.290496937924443      -0.304220140468118     0.00777657247694775
167                     120                     108                     100       0.274071575743126       0.300879610384964       0.412972863576912
168                     122                     110              105.656854      -0.355659393931705      -0.292274334044135      -0.435509226484739
169                     122                     110              102.828427        0.33372675501551       0.277870846277238      0.0055595495941444
170                     122                     110                     100      -0.315169037435714       -0.26598330196869       0.418558043657461
171                     124                     108              105.656854        0.37478512213656        0.32089568915655      -0.430919443297784
172                     124                     108              102.828427      -0.368101365629099      -0.316383468611084    -0.00516304374079072
173                     124                     108                     100       0.368982151765138        0.30548424786831        0.44058885808488
174                     126                     110              105.656854      -0.436827244320476      -0.274771789879349      -0.435034199216058
175                     126                     110              102.828427       0.380240974436771       0.268085181286371      0.0113646163601601
176                     126                     110                     100      -0.446876562588501      -0.255287031488991       0.413922751531767
177                     128                     108              105.656854       0.688057723137391        0.29374975013878      -0.326380540855286
178                     128                     108              102.828427      -0.246610292028184      -0.295321585634522    -0.00485743898603513
179                     128                     108                     100       0.691710373189934        0.28633622219316       0.334169870878902
180                     130                     110              105.656854       -1.17942448351317      -0.228004793451943      -0.839061799767488
181                     130                     110              102.828427      -0.512907390180608       0.231101925566414     0.00532463433538267
182                     130                     110                     100       -1.18561132130265      -0.222916882156282        0.83053966870588
183                     100                     112              105.656854        1.11835337489084       0.138170040038687      -0.806377644719306
184                     100                     112              102.828427       0.583431648303305      -0.140137708421771     -0.0044177495821086
185                     100                     112                     100        1.11273433159114       0.135811038528019       0.813507582579858
186                     102                     114              105.656854      -0.639007544931861       -0.17059745079995      -0.371546229880511
187                     102                     114              102.828427       0.185041971719686       0.173133358163414     0.00867061295866366
188                     102                     114                     100      -0.626588834385203      -0.167754526423775       0.357459763362187
189                     104                     112              105.656854       0.401187017177935       0.187453921103973      -0.374667434680373
190                     104                     112              102.828427      -0.322053673112946      -0.185654337923635     -0.0117055393409284
191                     104                     112                     100       0.384829753834861       0.177580176812865       0.394978942099964
192                     106                     114              105.656854      -0.354836605616797      -0.209005065848163      -0.516728971688284
193                     106                     114              102.828427       0.321626500779259         0.2080494354431       0.022914863743949
194                     106                     114                     100      -0.322446077790222        -0.1997669690735        0.46670895853072
195                     108                     112              105.656854        0.28118135365253        0.25549066741465      -0.309442877351047
196                     108                     112              102.828427      -0.261872589359173      -0.223058199103692     -0.0209136330672936
197                     108                     112                     100       0.261222655862188       0.210946572405108        0.38898814940453
198                     110                     114              105.656854      -0.156921115099856       -0.19710057872731      -0.739263989993007
199                     110                     114              102.828427       0.223613454025466       0.226134356986896      0.0146356869811229
200                     110                     114                     100      -0.239469879206803      -0.220156629298607       0.456869681621279
201                     112                     112              105.656854      0.0975413419486065       0.227290943061884       -0.43095329467513