ITEM: TIMESTEP
0
ITEM: NUMBER OF ATOMS
422
ITEM: BOX BOUNDS ff ff ff
0.0000000000000000e+00 2.3200000000000000e+02
0.0000000000000000e+00 2.3200000000000000e+02
0.0000000000000000e+00 2.3200000000000000e+02
ITEM: ATOMS id xu yu zu fx fy fz
1        113.166419614759        116.004008236598        108.677341420921    -0.00368497181140727    -0.00136791609745244     0.00541978906272971
2        118.860554161928        116.022295563492        108.689923321857    0.000605812331634237    -0.00196055044038531     0.00404711408474046
3        117.428351814359        116.013801933207        108.682860820442   -0.000146423592482264     0.00243499494460578      0.0106600222367595
4        114.615931146478        116.029811050465        108.701713107529     0.00586176606521335     0.00186204305368189     0.00848770055728826
5        116.727293295451        114.775942977846        108.683072127682     -0.0154993129014293      0.0159491529548224      0.0352090142599478
6        115.274463783881        114.747929401725        108.656490793014       0.025616814123262      0.0169513714021684      0.0418577163387799
7        115.278248557051        117.228928897411        108.662760692023      0.0246139848837957    -0.00897132727823605      0.0387912883110722
8        116.668509127137        117.194373532298        108.626773085716     -0.0175845201870092    -0.00944714957574428      0.0401392062462819
9         114.46898799345        113.499677313868        108.608085072692      0.0332028473573577     -0.0463505011700136       0.187991312594435
10        117.460006566908        113.550854488063        108.656307084177     -0.0499280388992581      -0.036834036283682       0.156151494094721
11        114.534853951313        118.443336052433         108.67884440054      0.0289733439629128      0.0159918023931623       0.145484858418341
12        117.452359830486         118.42100053401        108.653553719831     -0.0506475703201778      0.0171733349833207       0.161373248885239
13        113.147889617283        113.583022944945        108.677432357047     -0.0263750312003399     -0.0284140025857922       0.105266092596249
14         113.09220054002        118.374306494181        108.626605731907     -0.0351259815303034       0.013440415499413       0.123943744399139
15        118.855748942816         113.57297301022        108.661634716648      0.0130109441658969     -0.0302915240342641       0.112448972330079
16         118.80007334178        118.364270040864        108.610821570284      0.0224629870959817      0.0159010808330339       0.151740904546501
17        112.435733138425        117.203257243926        108.665791300286      -0.008440250428127     0.00170958838060412      0.0207145213606956
18        112.383775085506         114.72582584183        108.611400026766     -0.0106444778355519      0.0079800765255834      0.0283595891452551
19        119.562737871446        114.794543787026        108.672970674754      0.0181007347702873     0.00741355510669317      0.0186774705783505
20        119.551992667397        117.209271935328        108.664658692369      0.0186862999204327     0.00155544535580647      0.0201914077142633
21        120.955650945087        114.824951008285        108.657369922463       0.131250484638352       0.121874496218438      0.0355823399475023
22        121.002764950312        117.208261817637        108.706827588061       0.129282692503616     -0.0254543844644501      0.0202484275056695
23         110.99495509534        114.788788251671        108.631183422179     -0.0111355679490734       0.128736807824912      0.0667778044080664
24        111.013343080129        117.143373039258        108.651915066984     -0.0126352665476699       -0.02242495907457      0.0564059810380726
25        121.542759219981        115.948029837359        108.612886759241     -0.0597433931330337      -0.023668118959458     0.00413878373113848
26        110.386175396905        115.980234801098        108.656338822434    -0.00908037569587982     -0.0273361938426097     -0.0105587916936877
27        121.640664864776        118.217390959878        108.688322818952      -0.169808560977192     -0.0397978824743277       0.173001805643959
28        121.661466621429        113.845985904424        108.704718334729      -0.168782903060298      -0.071654734646257       0.159904348945985
29        110.310839540587        118.125650277156        108.607878789859      0.0238629847535368     -0.0573835316717922        0.18430849117452
30        110.394703744859        113.817307671329        108.687336754599      0.0304580117368982     -0.0779389122098434       0.127291165974198
31        112.551812748618        112.567400726468        108.608799926375     -0.0154503474883371      0.0289837841268851       0.017091902276397
32        112.564462599817        119.321842420427        108.628213099218     -0.0136074531270793      0.0154372350450597      0.0065536410347163
33        119.357567758324        112.599517960003        108.634108225372      0.0548252601557417      0.0267113489041219     0.00794803589047679
34        119.411959930926        119.395701984173        108.695263723784      0.0563128322652698      0.0146779132799937     0.00055701668593591
35        114.978004877122        112.584678868134        108.672572304255     0.00409024919264247      0.0153187844888933   -0.000443474646735311
36        114.975580705052        119.421877742511         108.67700959637     0.00408131453932442      0.0134457646283993     -0.0044156059343881
37        117.020704901225        112.573737886943        108.659566977203      0.0215957450842209      0.0149216302885736    -0.00157470461030912
38        116.996340354875        119.388996387929        108.642063897344      0.0219956927301191      0.0118415899789535    -0.00541478934469755
39                     100                     100              105.656854       0.212106754145225       0.213954596834725      -0.975675818802051
40                     100                     100              102.828427       0.432070903225899       0.430450509494664   -0.000364229946673395
41                     100                     100                     100       0.212095750053855       0.213424036188861       0.976294853212029
42                     102                     102              105.656854       -0.34438776680195      -0.347537953505195       -0.27797924487809
43                     102                     102              102.828427     -0.0509931366219684     -0.0483508566698184    0.000657419212247694
44                     102                     102                     100      -0.344410885770858      -0.346452437665167       0.276897954076975
45                     104                     100              105.656854      0.0956807840561108       0.960018835041197      -0.808934186074977
46                     104                     100              102.828427     -0.0636691083322761       0.726745686624245   -0.000249926747944118
47                     104                     100                     100      0.0960765560740159       0.959411559687577       0.809331454856181
48                     106                     102              105.656854      -0.148931664048117      -0.514788502513159      -0.381453623957693
49                     106                     102              102.828427       0.142059151601427      0.0664385268953318    0.000314026207152302
50                     106                     102                     100       -0.15000538243102      -0.513697995543528       0.380986137922956
51                     108                     100              105.656854       0.109431589216614        1.05992639493918      -0.801906561361509
52                     108                     100              102.828427      -0.111433991161798       0.640008814337909    0.000297584290713487
53                     108                     100                     100       0.110510229687493        1.05993942122094       0.801370803313069
54                     110                     102              105.656854      -0.142974722296327      -0.581536024468902       -0.37381616117776
55                     110                     102              102.828427       0.147773121248277       0.134545841194516     -0.0010578909921692
56                     110                     102                     100      -0.145407719040108      -0.582447854896842       0.375598898732664
57                     112                     100              105.656854       0.131624040399123        1.10816022969684      -0.810677122153643
58                     112                     100              102.828427      -0.135412210000562       0.589672736218902     0.00121952046864125
59                     112                     100                     100       0.132794285650646        1.10970065567356        0.80862155443893
60                     114                     102              105.656854       -0.16379684035483      -0.618352570573848      -0.361350573070554
61                     114                     102              102.828427       0.168728929252473       0.174478782067313    -0.00274089094517785
62                     114                     102                     100      -0.165260297183796      -0.622464712862374       0.365848429943198
63                     116                     100              105.656854        0.16664044407434        1.14363541841171      -0.821228043953994
64                     116                     100              102.828427      -0.170817719769934       0.552507501711423     0.00171588755103661
65                     116                     100                     100       0.166624224522512        1.14610402467762       0.818363237029894
66                     118                     102              105.656854      -0.209643266116489      -0.650594909618872      -0.347924685439973
67                     118                     102              102.828427       0.214482107899705       0.207761772035784    -0.00272074875934407
68                     118                     102                     100      -0.208126426120833       -0.65468212833332       0.352391800641781
69                     120                     100              105.656854       0.223347851746134        1.18230975792741      -0.835233893371566
70                     120                     100              102.828427      -0.228755644009673       0.513111411649074     0.00119570757652105
71                     120                     100                     100       0.222148922010682        1.18381838528817       0.833216785707788
72                     122                     102              105.656854      -0.288985601742244      -0.687855510989479      -0.330318661941301
73                     122                     102              102.828427       0.293746711729511       0.244220370791089    -0.00100038962103947
74                     122                     102                     100      -0.286516023477034      -0.688682883120635        0.33201106167032
75                     124                     100              105.656854       0.326490718751933        1.23668362259433      -0.852082512609267
76                     124                     100              102.828427      -0.323119215260529       0.459535219651824    0.000258839760690161
77                     124                     100                     100       0.325403270549017        1.23664400185972       0.851610333695738
78                     126                     102              105.656854      -0.461834176686554      -0.727764384085816       -0.33206611496003
79                     126                     102              102.828427       0.397362749544621       0.281743157172186    0.000380176871109151
80                     126                     102                     100       -0.46077210831941      -0.726582697153158       0.331491810139238
81                     128                     100              105.656854       0.708338182554642        1.34077214787101      -0.754711346267051
82                     128                     100              102.828427      -0.280994690141853       0.396042505671917   -0.000286645000219611
83                     128                     100                     100       0.707953658664226        1.34012095404374       0.755170240746603
84                     130                     102              105.656854       -1.34064393742099      -0.708829326367327      -0.755452651596152
85                     130                     102              102.828427      -0.395807871891012       0.281081995006532    0.000704983235335609
86                     130                     102                     100        -1.3406504530929      -0.707692106260649       0.754292163161251
87                     100                     104              105.656854       0.958994780784288       0.100028237379747      -0.808417522774047
88                     100                     104              102.828427       0.727761507584851     -0.0672189713191826    -0.00102235424524761
89                     100                     104                     100       0.958468644044153         0.0987210368082       0.810116936759267
90                     102                     106              105.656854      -0.513600103267405        -0.1570798153018       -0.38279282926161
91                     102                     106              102.828427      0.0650640944161217       0.148173241164082     0.00210262226738479
92                     102                     106                     100      -0.512350959253694      -0.154124057954549       0.379394155483163
93                     104                     104              105.656854       0.246980258368261       0.252812948740522      -0.388511891096004
94                     104                     104              102.828427      -0.179790090139673      -0.184342532451665    -0.00125054992663374
95                     104                     104                     100       0.247196168452112       0.250418803480431       0.390509671416841
96                     106                     106              105.656854      -0.232669555481695      -0.244740848452891      -0.504626189373211
97                     106                     106              102.828427       0.224913938647099       0.233215764227193     0.00244781673107706
98                     106                     106                     100      -0.233905626320483      -0.239054197817154       0.500670557880202
99                     108                     104              105.656854       0.172704460397756       0.338272505895065      -0.375273886618594
100                     108                     104              102.828427      -0.176840020049096       -0.26849751603031   -0.000120726441005526
101                     108                     104                     100       0.175868819896302       0.336573272992155       0.375409388009844
102                     110                     106              105.656854        -0.1808009786814      -0.292115636130666      -0.489792937603972
103                     110                     106              102.828427       0.191483656178205       0.285054990972955     -0.0015291581586443
104                     110                     106                     100      -0.190518244445449      -0.291551908965002       0.492270541641784
105                     112                     104              105.656854       0.166522037033135       0.378589637434303      -0.391016453522063
106                     112                     104              102.828427      -0.173814420582263       -0.31395019648172       0.003314369252396
107                     112                     104                     100       0.171539207689504       0.383140598552749       0.385592612390178
108                     114                     106              105.656854      -0.187733314493779      -0.306110242621448      -0.466538668188832
109                     114                     106              102.828427       0.197223119879693       0.310953989994719    -0.00906333413724626
110                     114                     106                     100      -0.194963167556191      -0.321952776908399       0.481951439755346
111                     116                     104              105.656854       0.198289422504727       0.404343986134694      -0.406527012940713
112                     116                     104              102.828427      -0.203484636974394      -0.343557100803694      0.0055454456830997
113                     116                     104                     100       0.198250966872208         0.4135987957841       0.397488114290162
114                     118                     106              105.656854      -0.241786658936866       -0.32835767150489      -0.450625487161355
115                     118                     106              102.828427       0.243833769167825       0.333910845983894    -0.00901560474904837
116                     118                     106                     100      -0.234395953587475       -0.34418080755428       0.465988348703455
117                     120                     104              105.656854       0.261106963027794       0.435403128879746      -0.421708073924094
118                     120                     104              102.828427      -0.265339097432819      -0.372563659676273     0.00324394797391166
119                     120                     104                     100       0.255988283166361       0.439854771033633       0.416387551079135
120                     122                     106              105.656854      -0.319724314259611      -0.362543563029178      -0.438169541851656
121                     122                     106              102.828427       0.320636262828964       0.357548443094514    -0.00133159723464551
122                     122                     106                     100      -0.309860254183618      -0.361625695825544       0.440343565099436
123                     124                     104              105.656854       0.368601922472968       0.463869319011257      -0.438512869098228
124                     124                     104              102.828427      -0.362883437511975      -0.397894186187411    -0.00024043406806102
125                     124                     104                     100       0.365424642659361       0.461980308451382       0.438834672795862
126                     126                     106              105.656854      -0.466459054516894      -0.369476665702114      -0.441718220126183
127                     126                     106              102.828427       0.401378153969334       0.361692863360577     0.00264899078809857
128                     126                     106                     100      -0.465328977828509      -0.363483234978068       0.437445138047561
129                     128                     104              105.656854       0.728108418527053       0.462523736510282      -0.330587410129804
130                     128                     104              102.828427      -0.282755854873869      -0.397172879300742    -0.00134530165718959
131                     128                     104                     100       0.727950909905468       0.460009021887631       0.332737172317863
132                     130                     106              105.656854       -1.23661233429443      -0.328520035708802      -0.853715513875599
133                     130                     106              102.828427      -0.458725716680426        0.32402587807053      0.0022092328520625
134                     130                     106                     100       -1.23797196021699      -0.325459109105193       0.850145509601988
135                     100                     108              105.656854        1.06286323283502       0.116721451118624      -0.799933191516756
136                     100                     108              102.828427       0.638340480633136      -0.116979567747855    -0.00244203828392186
137                     100                     108                     100        1.06054833129701       0.114288038665227       0.803916008583105
138                     102                     110              105.656854      -0.589628798399075      -0.155819976166071      -0.379126385439258
139                     102                     110              102.828427       0.138478505338097       0.156475376386134     0.00527041321572586
140                     102                     110                     100      -0.583651189936011      -0.150631132855657       0.370615282156922
141                     104                     108              105.656854       0.337791016252501       0.189495750226777      -0.371119079729468
142                     104                     108              102.828427      -0.266715326102503      -0.187724449016415    -0.00466731726581948
143                     104                     108                     100       0.334562381576968       0.182191840755434          0.378716131149
144                     106                     110              105.656854      -0.296716271345376      -0.218566006198718       -0.50601716394864
145                     106                     110              102.828427       0.282553106668126       0.210352438796466      0.0107399347952405
146                     106                     110                     100      -0.288252162895958      -0.199467975654879       0.485632372822574
147                     108                     108              105.656854       0.220790763441983       0.249778593614533      -0.359144712978744
148                     108                     108              102.828427      -0.228272340127927      -0.243911671203756    -0.00434844457623208
149                     108                     108                     100         0.2277296998644       0.235723736032127       0.367748191137296
150                     110                     110              105.656854      -0.178331471540321      -0.253548075380092      -0.487465604662851
151                     110                     110              102.828427       0.215440016106716       0.242656525934413     0.00333794864437542
152                     110                     110                     100      -0.221505781475348       -0.23253327217078       0.475816306321481
153                     112                     108              105.656854       0.175653245052319         0.2547459946605      -0.394241874878499
154                     112                     108              102.828427      -0.197958690512521      -0.268699546066659     0.00903811042313348
155                     112                     108                     100       0.201101797884528       0.267124381316251       0.377515124705796
156                     114                     110              105.656854      -0.179955322941223      -0.184321712447055      -0.384239787550219
157                     114                     110              102.828427       0.209231766396026       0.246362126644269     -0.0276967910854828
158                     114                     110                     100      -0.213376735181789      -0.249334234602638       0.470401001763102
159                     116                     108              105.656854       0.220235890357234        0.24948295000791      -0.425924224209488
160                     116                     108              102.828427      -0.226217737752249      -0.281500549847942      0.0196750255962251
161                     116                     108                     100       0.220276490275476       0.285934980660863       0.388488000706139
162                     118                     110              105.656854       -0.28379923477028      -0.194639980521897      -0.366103203513454
163                     118                     110              102.828427       0.266556981111201       0.257674440962923     -0.0276999169831062
164                     118                     110                     100      -0.249530576591732      -0.260315248955031       0.452957567286137
165                     120                     108              105.656854       0.300182456437671       0.288732734842466      -0.428889677408301
166                     120                     108              102.828427      -0.290621938691603      -0.303545432143893     0.00881253209757883
167                     120                     108                     100       0.274135180585033       0.300780455958695       0.412475303406565
168                     122                     110              105.656854       -0.35903705060945      -0.289072810344717      -0.432663764936056
169                     122                     110              102.828427        0.33456919786631       0.277598854268009     0.00408599457656749
170                     122                     110                     100      -0.315402434606935      -0.266082175476851       0.419071545604874
171                     124                     108              105.656854       0.376091276772854       0.320322276092405       -0.43100182087091
172                     124                     108              102.828427      -0.368730770518708      -0.316171343961262    -0.00477871736299905
173                     124                     108                     100        0.36923819616822       0.305464274704296       0.440333063788914
174                     126                     110              105.656854      -0.437851839613661      -0.275308374091075      -0.435501954908771
175                     126                     110              102.828427       0.380820569702691       0.268296762511494      0.0113185626712293
176                     126                     110                     100      -0.447121651156299      -0.255406769784315       0.414017925418312
177                     128                     108              105.656854        0.68835420104507       0.293968785517096      -0.326165362674615
178                     128                     108              102.828427      -0.246869296275524      -0.295417636081227    -0.00490889044915037
179                     128                     108                     100       0.691869513039855        0.28639004468901       0.334151206975352
180                     130                     110              105.656854       -1.17940536861306      -0.228259814540483      -0.839306933421652
181                     130                     110              102.828427      -0.512823906036588       0.231244892135919     0.00545893105009038
182                     130                     110                     100       -1.18569256650595       -0.22299689123451       0.830490035139091
183                     100                     112              105.656854        1.11835029491161       0.138339932763758      -0.806366870945776
184                     100                     112              102.828427       0.583431991914423      -0.140273070411406     -0.0044304634264206
185                     100                     112                     100        1.11273569319024       0.135905075623702       0.813522387265485
186                     102                     114              105.656854      -0.639172800850873      -0.170964696994029       -0.37160555487068
187                     102                     114              102.828427       0.185140901507887       0.173381482104561     0.00875128033255316
188                     102                     114                     100      -0.626636640103236      -0.167898391913285       0.357392962544875
189                     104                     112              105.656854       0.400827574658368       0.188006124394677      -0.374749644464215
190                     104                     112              102.828427      -0.321927247892869      -0.186016097822103      -0.011645505109578
191                     104                     112                     100       0.384791860682037       0.177782006915877       0.394972154455929
192                     106                     114              105.656854      -0.354778814340563      -0.211152534807835      -0.516809273004117
193                     106                     114              102.828427         0.3217024328129       0.208886693989655      0.0230975201173295
194                     106                     114                     100      -0.322474974207383      -0.200089008720375       0.466580731149612
195                     108                     112              105.656854       0.278271594178564       0.256120517803414      -0.312516029205868
196                     108                     112              102.828427      -0.261501587919181      -0.223808685053357      -0.020231300732578
197                     108                     112                     100       0.261140434908132       0.211296251057021       0.388875081315928
198                     110                     114              105.656854      -0.158523812948528      -0.210096309328446      -0.731233863424263
199                     110                     114              102.828427       0.223618293143972        0.22781060830568      0.0147657427097262
200                     110                     114                     100      -0.239434472932785      -0.220639866954594       0.456715552383348
201                     112                     112              105.656854        0.10173000314591       0.228952522553659      -0.438611447702165