ITEM: TIMESTEP
0
ITEM: NUMBER OF ATOMS
422
ITEM: BOX BOUNDS ff ff ff
0.0000000000000000e+00 2.3200000000000000e+02
0.0000000000000000e+00 2.3200000000000000e+02
0.0000000000000000e+00 2.3200000000000000e+02
ITEM: ATOMS id xu yu zu fx fy fz
1        113.148864857824        115.986453479663        108.659786663986        2.83101901310773        2.31240350532038      -0.197145731489089
2        118.833797661535        115.995539063098        108.663166821464       -2.68070546135016      -0.982821907147668      -0.050038962379712
3        117.365518725749        115.950968844597        108.620027731832        3.48947149014634        4.09475219243188      -0.302394704977028
4        114.575719660259        115.989599564246         108.66150162131        1.18441242615273        1.59480476524297      0.0543572688683264
5        116.662912368143        114.711562050537        108.618691200373       0.530986109225604       0.551216455157048      -0.423062975186652
6        115.248735092079        114.722200709923        108.630762101212        4.00343634260972        1.60251410853841      -0.490048080898153
7        115.290749904598        117.241430244958         108.67526203957       0.420302933677513        1.43898788948653       0.165214920662233
8        116.710897859586        117.236762264747        108.669161818164       -2.45169898641492      0.0767335119917214       0.191878827748134
9        114.491790905804        113.522480226222        108.630887985047        9.82192261318211       -5.18415887536134      -0.610483282095673
10        117.463620665113        113.554468586267        108.659921182381       -4.10069710751732       -6.67960707494198       0.131256486797861
11        114.548867997574        118.457350098694        108.692858446801        1.85471171138883        4.67882477378261         0.1753249952086
12        117.491692968773        118.460333672297        108.692886858118       -10.4832694032324        3.10985167803949       0.409292780688045
13         113.16919122989        113.604324557552        108.698733969654       -10.1197316921241       -10.3357942248777       0.562683669602965
14        113.143251794545        118.425357748705        108.677656986431       -4.50441863428492        5.04418256336946       -0.21488958751024
15        118.862215957393        113.579440024797        108.668101731225        6.24655883929391       -7.48313187099792     -0.0963912933349227
16        118.804583608192        118.368780307276        108.615331836696        10.3698060624663        11.2610265516704      -0.669886219035639
17        112.381231309334        117.148755414835        108.611289471195        8.15753230178461         11.012098269787      -0.784145475057799
18        112.462493511732        114.804544268056        108.690118452993       -8.89585001050527       -6.37834519732044       0.421624983730444
19        119.552465227979        114.784271143558        108.662698031286        4.25856613990114      -0.606601104968782       0.106430588848539
20        119.570222555323        117.227501823254        108.682888580295      -0.737221251032628       -3.49819001304003       0.322887452461696
21        120.998857565593        114.868157628791        108.700576542969        6.36463578955536       -9.98450942999001      0.0232697798403988
22         121.00030765868        117.205804526005         108.70437029643        2.10173004169763        2.84453381572019       0.677546317520363
23        110.986565039976        114.780398196308        108.622793366815       -4.81961872930854       -3.93323714048408     -0.0884460979206473
24        111.065068002654        117.195097961782        108.703639989509        -13.612910815337        3.94438619259429       0.519125757777441
25        121.634790790027        116.040061407405        108.704918329287        3.88830190576709       -3.46571983206462       0.325713839878328
26        110.413847996319        116.007907400512        108.684011421848       -5.31619170500781       -2.95009300842468       0.203798563367618
27        121.580780331204        118.157506426306         108.62843828538        10.8467518665921        14.9541689610785      -0.873396951191625
28        121.625539862694        113.810059145688        108.668791575994        4.34109314985776       -4.22966993221098    -0.00920012196844545
29        110.363405199908        118.178215936477        108.660444449181       -5.86928912336849        7.26199086865106      0.0538314046178135
30        110.335902257298        113.758506183767        108.628535267037       -3.36428005488927       -4.28055411383527      -0.151459553177648
31        112.642568254005        112.658156231856        108.699555431762       -5.65837778502963       -6.20621110247064       0.244539406878784
32        112.624803951927        119.382183772537        108.688554451328       -2.95383827678191        3.40613931726469      0.0534266284462075
33         119.33612887086        112.578079072539        108.612669337908        3.23905586817264       -3.48347574555865      -0.111422088599259
34        119.359882906367        119.343624959614        108.643186699225        4.03016343418203        5.36090310253157      -0.244271496522916
35         115.01165406659        112.618328057602        108.706221493723        3.60804172746957       -7.53743648833271       0.253921045128693
36        114.984973723494        119.431270760953        108.686402614812        3.12469943757206        5.03136441680939      0.0389202193714833
37        117.061973721729        112.615006707447        108.700835797708       -5.27461901743811       -8.52449975642169        0.32995359005499
38        117.009806416468        119.402462449521        108.655529958937       -3.87048115018033        6.16317387898147      0.0516840938464841
39                     100                     100              105.656854                       0                       0                       0
40                     100                     100              102.828427                       0                       0                       0
41                     100                     100                     100                       0                       0                       0
42                     102                     102              105.656854                       0                       0                       0
43                     102                     102              102.828427                       0                       0                       0
44                     102                     102                     100                       0                       0                       0
45                     104                     100              105.656854                       0                       0                       0
46                     104                     100              102.828427                       0                       0                       0
47                     104                     100                     100                       0                       0                       0
48                     106                     102              105.656854                       0                       0                       0
49                     106                     102              102.828427                       0                       0                       0
50                     106                     102                     100                       0                       0                       0
51                     108                     100              105.656854                       0                       0                       0
52                     108                     100              102.828427                       0                       0                       0
53                     108                     100                     100                       0                       0                       0
54                     110                     102              105.656854                       0                       0                       0
55                     110                     102              102.828427                       0                       0                       0
56                     110                     102                     100                       0                       0                       0
57                     112                     100              105.656854                       0                       0                       0
58                     112                     100              102.828427                       0                       0                       0
59                     112                     100                     100                       0                       0                       0
60                     114                     102              105.656854                       0                       0                       0
61                     114                     102              102.828427                       0                       0                       0
62                     114                     102                     100                       0                       0                       0
63                     116                     100              105.656854                       0                       0                       0
64                     116                     100              102.828427                       0                       0                       0
65                     116                     100                     100                       0                       0                       0
66                     118                     102              105.656854                       0                       0                       0
67                     118                     102              102.828427                       0                       0                       0
68                     118                     102                     100                       0                       0                       0
69                     120                     100              105.656854                       0                       0                       0
70                     120                     100              102.828427                       0                       0                       0
71                     120                     100                     100                       0                       0                       0
72                     122                     102              105.656854                       0                       0                       0
73                     122                     102              102.828427                       0                       0                       0
74                     122                     102                     100                       0                       0                       0
75                     124                     100              105.656854                       0                       0                       0
76                     124                     100              102.828427                       0                       0                       0
77                     124                     100                     100                       0                       0                       0
78                     126                     102              105.656854                       0                       0                       0
79                     126                     102              102.828427                       0                       0                       0
80                     126                     102                     100                       0                       0                       0
81                     128                     100              105.656854                       0                       0                       0
82                     128                     100              102.828427                       0                       0                       0
83                     128                     100                     100                       0                       0                       0
84                     130                     102              105.656854                       0                       0                       0
85                     130                     102              102.828427                       0                       0                       0
86                     130                     102                     100                       0                       0                       0
87                     100                     104              105.656854                       0                       0                       0
88                     100                     104              102.828427                       0                       0                       0
89                     100                     104                     100                       0                       0                       0
90                     102                     106              105.656854                       0                       0                       0
91                     102                     106              102.828427                       0                       0                       0
92                     102                     106                     100                       0                       0                       0
93                     104                     104              105.656854                       0                       0                       0
94                     104                     104              102.828427                       0                       0                       0
95                     104                     104                     100                       0                       0                       0
96                     106                     106              105.656854                       0                       0                       0
97                     106                     106              102.828427                       0                       0                       0
98                     106                     106                     100                       0                       0                       0
99                     108                     104              105.656854                       0                       0                       0
100                     108                     104              102.828427                       0                       0                       0
101                     108                     104                     100                       0                       0                       0
102                     110                     106              105.656854                       0                       0                       0
103                     110                     106              102.828427                       0                       0                       0
104                     110                     106                     100                       0                       0                       0
105                     112                     104              105.656854                       0                       0                       0
106                     112                     104              102.828427                       0                       0                       0
107                     112                     104                     100                       0                       0                       0
108                     114                     106              105.656854                       0                       0                       0
109                     114                     106              102.828427                       0                       0                       0
110                     114                     106                     100                       0                       0                       0
111                     116                     104              105.656854                       0                       0                       0
112                     116                     104              102.828427                       0                       0                       0
113                     116                     104                     100                       0                       0                       0
114                     118                     106              105.656854                       0                       0                       0
115                     118                     106              102.828427                       0                       0                       0
116                     118                     106                     100                       0                       0                       0
117                     120                     104              105.656854                       0                       0                       0
118                     120                     104              102.828427                       0                       0                       0
119                     120                     104                     100                       0                       0                       0
120                     122                     106              105.656854                       0                       0                       0
121                     122                     106              102.828427                       0                       0                       0
122                     122                     106                     100                       0                       0                       0
123                     124                     104              105.656854                       0                       0                       0
124                     124                     104              102.828427                       0                       0                       0
125                     124                     104                     100                       0                       0                       0
126                     126                     106              105.656854                       0                       0                       0
127                     126                     106              102.828427                       0                       0                       0
128                     126                     106                     100                       0                       0                       0
129                     128                     104              105.656854                       0                       0                       0
130                     128                     104              102.828427                       0                       0                       0
131                     128                     104                     100                       0                       0                       0
132                     130                     106              105.656854                       0                       0                       0
133                     130                     106              102.828427                       0                       0                       0
134                     130                     106                     100                       0                       0                       0
135                     100                     108              105.656854                       0                       0                       0
136                     100                     108              102.828427                       0                       0                       0
137                     100                     108                     100                       0                       0                       0
138                     102                     110              105.656854                       0                       0                       0
139                     102                     110              102.828427                       0                       0                       0
140                     102                     110                     100                       0                       0                       0
141                     104                     108              105.656854                       0                       0                       0
142                     104                     108              102.828427                       0                       0                       0
143                     104                     108                     100                       0                       0                       0
144                     106                     110              105.656854                       0                       0                       0
145                     106                     110              102.828427                       0                       0                       0
146                     106                     110                     100                       0                       0                       0
147                     108                     108              105.656854                       0                       0                       0
148                     108                     108              102.828427                       0                       0                       0
149                     108                     108                     100                       0                       0                       0
150                     110                     110              105.656854                       0                       0                       0
151                     110                     110              102.828427                       0                       0                       0
152                     110                     110                     100                       0                       0                       0
153                     112                     108              105.656854                       0                       0                       0
154                     112                     108              102.828427                       0                       0                       0
155                     112                     108                     100                       0                       0                       0
156                     114                     110              105.656854                       0                       0                       0
157                     114                     110              102.828427                       0                       0                       0
158                     114                     110                     100                       0                       0                       0
159                     116                     108              105.656854                       0                       0                       0
160                     116                     108              102.828427                       0                       0                       0
161                     116                     108                     100                       0                       0                       0
162                     118                     110              105.656854                       0                       0                       0
163                     118                     110              102.828427                       0                       0                       0
164                     118                     110                     100                       0                       0                       0
165                     120                     108              105.656854                       0                       0                       0
166                     120                     108              102.828427                       0                       0                       0
167                     120                     108                     100                       0                       0                       0
168                     122                     110              105.656854                       0                       0                       0
169                     122                     110              102.828427                       0                       0                       0
170                     122                     110                     100                       0                       0                       0
171                     124                     108              105.656854                       0                       0                       0
172                     124                     108              102.828427                       0                       0                       0
173                     124                     108                     100                       0                       0                       0
174                     126                     110              105.656854                       0                       0                       0
175                     126                     110              102.828427                       0                       0                       0
176                     126                     110                     100                       0                       0                       0
177                     128                     108              105.656854                       0                       0                       0
178                     128                     108              102.828427                       0                       0                       0
179                     128                     108                     100                       0                       0                       0
180                     130                     110              105.656854                       0                       0                       0
181                     130                     110              102.828427                       0                       0                       0
182                     130                     110                     100                       0                       0                       0
183                     100                     112              105.656854                       0                       0                       0
184                     100                     112              102.828427                       0                       0                       0
185                     100                     112                     100                       0                       0                       0
186                     102                     114              105.656854                       0                       0                       0
187                     102                     114              102.828427                       0                       0                       0
188                     102                     114                     100                       0                       0                       0
189                     104                     112              105.656854                       0                       0                       0
190                     104                     112              102.828427                       0                       0                       0
191                     104                     112                     100                       0                       0                       0
192                     106                     114              105.656854                       0                       0                       0
193                     106                     114              102.828427                       0                       0                       0
194                     106                     114                     100                       0                       0                       0
195                     108                     112              105.656854                       0                       0                       0
196                     108                     112              102.828427                       0                       0                       0
197                     108                     112                     100                       0                       0                       0
198                     110                     114              105.656854                       0                       0                       0
199                     110                     114              102.828427                       0                       0                       0
200                     110                     114                     100                       0                       0                       0
201                     112                     112              105.656854                       0                       0                       0