ITEM: TIMESTEP
0
ITEM: NUMBER OF ATOMS
422
ITEM: BOX BOUNDS ff ff ff
0.0000000000000000e+00 2.3200000000000000e+02
0.0000000000000000e+00 2.3200000000000000e+02
0.0000000000000000e+00 2.3200000000000000e+02
ITEM: ATOMS id xu yu zu fx fy fz
1        113.145932193839        115.983520815677              111.356854     0.00300237851848584    -0.00118027028985628    -0.00238443763306011
2        118.827484840071        115.989226241634              111.356854    -0.00540969457797943    -0.00115051461855255    -0.00200142139658894
3        117.402344993917        115.987795112765              111.356854     0.00262969930018905     0.00253522959456332     -0.0027985930232258
4        114.571072038949        115.984951942936              111.356854     0.00252814430931031     0.00257617570336266    -0.00239549707610336
5        116.701075167769        114.749724850164              111.356854     0.00312350521836161     0.00438840767472876    -0.00261156591496571
6        115.274826990867        114.748292608712              111.356854     0.00367209904819836     0.00439932360859063    -0.00234581109404479
7        115.272341865028        117.223022205388              111.356854     0.00364395269964813     0.00240965802810378     -0.0028093338141129
8        116.698590041422        117.224454446583              111.356854      0.0030606957025508      0.0023643021303443    -0.00307073485533579
9        114.517756920757        113.548446241175              111.356854    -0.00320740792205638     -0.0054854134540276    -0.00310495776423893
10        117.460553482731        113.551401403886              111.356854     -0.0128944441596607     -0.0055254429033528    -0.00179016014096874
11        114.512863550773        118.421345651893              111.356854    -0.00314714717609785     -0.0107602077528737   -0.000892324841842045
12        117.455660110655        118.424300814179              111.356854      -0.012503361241809     -0.0104715908951705    0.000381589769183154
13        113.127311260236        113.562444587898              111.356854      0.0146797104726294    -0.00698134515981783    -0.00353410825582833
14        113.122448808114        118.404554762274              111.356854      0.0145949328552357    -0.00674039276030604    -0.00167346409097256
15        118.850968226168        113.568192293572              111.356854     -0.0285365397626348    -0.00707313007552123    -0.00130513897228507
16        118.846105771496         118.41030247058              111.356854     -0.0280792164467263    -0.00629289462779589    0.000489645800529552
17        112.426795838139         117.19431994364              111.356854      0.0033642635480433      0.0071933353627161    -0.00220751389803634
18         112.42922905874        114.771279815063              111.356854     0.00332436036877709     0.00113635936607057    -0.00165339997051766
19        119.546621196692        114.778427112272              111.356854     0.00527590723102438     0.00107319849641499    -0.00338692192482978
20        119.544187975028         117.20146724296              111.356854     0.00510925688292303     0.00692417646432456    -0.00391814322866597
21        120.955135022624        114.824435085822              111.356854       0.107866063962191        0.13614175159136     -0.0199690534739813
22        120.952791362251        117.158288229576              111.356854       0.105847992432625     -0.0476871628629615     -0.0256031439803108
23        111.020625673161        114.814458829493              111.356854    -0.00755946797254403       0.137119801802057      0.0089450122299594
24        111.018282013145        117.148311972274              111.356854    -0.00642431699612439     -0.0435563150622768     0.00293405282616069
25        121.586726460739        115.991997078118              111.356854     -0.0368119799245764     -0.0234768063071552      0.0109640769309319
26        110.386690574472        115.980749978664              111.356854     -0.0181832986113295     -0.0250743825591667    -0.00714062245030001
27        121.609196045824        118.185922140926              111.356854      -0.121445798682672      -0.056746532468831      0.0344333710788844
28          121.6136022867        113.798121569695              111.356854      -0.126992074166551     -0.0505795074941744      0.0214914672874645
29        110.359814750727        118.174625487296              111.356854   -0.000409196523549232      -0.064447169868057    -0.00581514843442554
30         110.36422099026         113.78682491673              111.356854      0.0022488471009135     -0.0500679752871982     -0.0198053678571629
31        112.599866822243        112.615454800093              111.356854     -0.0305294739099922       0.011562382872664     0.00429605906694399
32        112.593103500599        119.350483321209              111.356854     -0.0300487825814294      0.0252812645015855    -0.00272407383271301
33        119.380313532952        112.622263734631              111.356854      0.0675041350602475      0.0121453047778495    -0.00279223367196089
34        119.373550207142        119.357292260389              111.356854      0.0656090681346651      0.0235014787444071    -0.00951894637325055
35        114.962286572867         112.56896056388              111.356854      0.0123295261415553     0.00653934257721489    0.000962528022186543
36        114.955425108682        119.401722146141              111.356854      0.0121022124463673      0.0176095328787478    -0.00369884170176768
37        117.017991924022        112.571024909739              111.356854      0.0111421319832834     0.00663675391171864    -0.00037032626008073
38        117.011130457531        119.403786490585              111.356854      0.0104393790102696      0.0172354564143473    -0.00496984910446298
39                     100                     100              105.656854       0.212144157432251       0.213770522912254      -0.975548710210362
40                     100                     100              102.828427       0.432018361917935       0.430683781895111   -0.000397862972220046
41                     100                     100                     100       0.212171935774108       0.213212709084224       0.976262625619906
42                     102                     102              105.656854      -0.344449430851878      -0.347114128275129       -0.27818569261069
43                     102                     102              102.828427     -0.0508823480285074     -0.0488220193536962    0.000654226706387502
44                     102                     102                     100       -0.34457435063444      -0.346081437274163       0.277008019074884
45                     104                     100              105.656854      0.0958886173210741       0.959827054032535      -0.808861830920365
46                     104                     100              102.828427     -0.0639364078543083       0.726969462126776   -0.000239192563041029
47                     104                     100                     100      0.0963556266154207       0.959238692373834       0.809283753267162
48                     106                     102              105.656854      -0.149451932152503       -0.51438757982082      -0.381512471840396
49                     106                     102              102.828427       0.142685121171436      0.0660607762912921    0.000233850849578652
50                     106                     102                     100      -0.150589289676718      -0.513470946962818       0.381079783246437
51                     108                     100              105.656854       0.109923431039073        1.06004367210211      -0.802024525020091
52                     108                     100              102.828427      -0.112011791835638       0.639882732208319    0.000339500935960709
53                     108                     100                     100       0.111029579578692        1.06006928236187       0.801397139398699
54                     110                     102              105.656854      -0.144113506467857      -0.582144628934961      -0.373493699687225
55                     110                     102              102.828427       0.148955497360538       0.135138874447857    -0.00103941948903475
56                     110                     102                     100        -0.1463292202322      -0.582913896077427        0.37540024241039
57                     112                     100              105.656854       0.132132969814656        1.10900569813943      -0.811072236504333
58                     112                     100              102.828427      -0.135979097976534       0.588814196434924     0.00122232695720167
59                     112                     100                     100       0.133263121906631        1.11036984463453       0.808829701758693
60                     114                     102              105.656854       -0.16445047379504      -0.620583153493001      -0.360652521609538
61                     114                     102              102.828427       0.169374609857959       0.176456280813155    -0.00245762754895897
62                     114                     102                     100      -0.165726172371256      -0.623783648766155        0.36523753746383
63                     116                     100              105.656854       0.166588375346142        1.14490853956819      -0.821766252347103
64                     116                     100              102.828427      -0.170771555484016       0.551234952857471     0.00168377551652458
65                     116                     100                     100       0.166587200409595        1.14705990651754        0.81867364015739
66                     118                     102              105.656854      -0.208846552084933      -0.652779716368283      -0.347220522602894
67                     118                     102              102.828427       0.213713798067132       0.209700437884716    -0.00245569482409944
68                     118                     102                     100      -0.207566939659045       -0.65597502609696       0.351801717136301
69                     120                     100              105.656854       0.222746791165111        1.18308804919859      -0.835639772864455
70                     120                     100              102.828427      -0.228109595809519       0.512307744774171     0.00122147982205538
71                     120                     100                     100       0.221617458918093        1.18444943780414       0.833398835383083
72                     122                     102              105.656854      -0.287742577030699      -0.688314232860185      -0.329965089999273
73                     122                     102              102.828427       0.292481472557817       0.244702213356507    -0.00103833944530794
74                     122                     102                     100      -0.285532757040251      -0.689079712376558       0.331869680960462
75                     124                     100              105.656854       0.325955330391879        1.23668691152078      -0.852222942157903
76                     124                     100              102.828427      -0.322503872203405       0.459498216378413    0.000340526995854489
77                     124                     100                     100       0.324852702568242        1.23671329639957       0.851593642303317
78                     126                     102              105.656854      -0.461310288233343      -0.727188541522787       -0.33208012893021
79                     126                     102              102.828427       0.396730248200353       0.281239108503278    0.000230268543702609
80                     126                     102                     100      -0.460178031267178      -0.726277149730843       0.331654345484575
81                     128                     100              105.656854       0.708141854326489        1.34047473293475      -0.754662877824808
82                     128                     100              102.828427      -0.280734507833914        0.39634928520643   -0.000236150660373646
83                     128                     100                     100       0.707676389445831        1.33989034563319       0.755079256600383
84                     130                     102              105.656854       -1.34063566903759      -0.708289470693338      -0.755625041762932
85                     130                     102              102.828427      -0.395879591667686       0.280523599545753    0.000648933249356442
86                     130                     102                     100       -1.34051052901094      -0.707263507743469       0.754457068349971
87                     100                     104              105.656854       0.958821284938073       0.099474653784888      -0.808089929677986
88                     100                     104              102.828427       0.727907872098993     -0.0666095894365416    -0.00103149143247032
89                     100                     104                     100       0.958428335070645      0.0982335569156083       0.809954067077378
90                     102                     106              105.656854      -0.513041305619357      -0.155674246980356       -0.38331836399955
91                     102                     106              102.828427      0.0647222648250532       0.146873538182251     0.00185434007857674
92                     102                     106                     100      -0.512326158017925      -0.153257353873939       0.379874721211267
93                     104                     104              105.656854       0.247116872056351       0.251741329858587      -0.388211640540924
94                     104                     104              102.828427      -0.180084962485714      -0.183357015883066     -0.0010738175557449
95                     104                     104                     100       0.247588887545299       0.249782604722792       0.390211587838012
96                     106                     106              105.656854      -0.233192410997369      -0.241721321255379      -0.504787248205955
97                     106                     106              102.828427       0.225888609521062        0.23115830254588      0.0016426927511975
98                     106                     106                     100      -0.234916697571764      -0.238061539515624       0.501348528282684
99                     108                     104              105.656854       0.174253566082062       0.337541010001584      -0.375363906009709
100                     108                     104              102.828427      -0.178430198073982      -0.268017982046965    7.93262432333218e-05
101                     108                     104                     100       0.177107410104148       0.336410324056646       0.375328119040028
102                     110                     106              105.656854      -0.186056981167071      -0.291967428663961      -0.489371707003583
103                     110                     106              102.828427       0.195531044780919       0.285239600625431    -0.00147933867528217
104                     110                     106                     100      -0.192974178509728      -0.291893540277299       0.491903556081064
105                     112                     104              105.656854       0.169032015524036       0.381283231384835      -0.391628460212551
106                     112                     104              102.828427      -0.175995046486315      -0.316034614482552     0.00274487158496888
107                     112                     104                     100       0.172957752942802       0.384404940782796       0.386402941702022
108                     114                     106              105.656854      -0.191657944444323      -0.316121456041668      -0.466730064440437
109                     114                     106              102.828427       0.199981640358502       0.316552970345961    -0.00617009657120583
110                     114                     106                     100      -0.196435726150667       -0.32457312934507       0.479578491422476
111                     116                     104              105.656854       0.198195528803351       0.409628846315332      -0.407370065436867
112                     116                     104              102.828427      -0.203400166754899      -0.347436746821308     0.00435789981558815
113                     116                     104                     100       0.198187698705502       0.415762224009292       0.398889840198359
114                     118                     106              105.656854      -0.237566587299298      -0.338339921723716      -0.450839564135133
115                     118                     106              102.828427       0.240840152665474       0.339452794110152    -0.00615931089291434
116                     118                     106                     100      -0.232765032440481       -0.34676436883695       0.463662280302904
117                     120                     104              105.656854       0.258384835377926       0.437949118840619      -0.422347043146701
118                     120                     104              102.828427      -0.263000333928787      -0.374537786390574     0.00273878258866436
119                     120                     104                     100       0.254461972733753       0.441055127392427        0.41713404891008
120                     122                     106              105.656854      -0.314193148549397      -0.361953475665754      -0.437603582230244
121                     122                     106              102.828427       0.316420790880107       0.357493776924962    -0.00147131827085141
122                     122                     106                     100      -0.307305330365017      -0.361860814322008         0.4401208547181
123                     124                     104              105.656854         0.3669858743817        0.46284601325586      -0.438688067399175
124                     124                     104              102.828427      -0.361241946023819      -0.397227966163285    8.10506912018515e-05
125                     124                     104                     100       0.364146275291823       0.461717678878195       0.438647628433214
126                     126                     106              105.656854      -0.466040422856167      -0.366027470248713      -0.441696254027193
127                     126                     106              102.828427       0.400453402566078       0.359401977392481     0.00163259303669897
128                     126                     106                     100      -0.464330639584456      -0.362385817493746       0.438282596024431
129                     128                     104              105.656854       0.728052456814578       0.461239395421117      -0.330361380869859
130                     128                     104              102.828427      -0.282512389926538      -0.396045859811005    -0.00106568280606236
131                     128                     104                     100       0.727582945735074       0.459292680867542       0.332345338790686
132                     130                     106              105.656854       -1.23734699678163      -0.326937471273411      -0.854148405052754
133                     130                     106              102.828427      -0.458270743578062       0.322616997157549     0.00184149526677587
134                     130                     106                     100       -1.23805698637026      -0.324536190332598       0.850729956577599
135                     100                     108              105.656854        1.06180385046158       0.115531011053915      -0.799275420354242
136                     100                     108              102.828427        0.63922084948797       -0.11583314406027    -0.00223732491284822
137                     100                     108                     100        1.06010354219284       0.113478501281341       0.803390437602625
138                     102                     110              105.656854      -0.586334365448175      -0.152946834739157      -0.379911902230681
139                     102                     110              102.828427       0.136454697131989       0.154251145722911     0.00404914365650785
140                     102                     110                     100      -0.582955670763008      -0.149358071779884       0.372004964323593
141                     104                     108              105.656854       0.335854923827604       0.185451161334061      -0.370697177364515
142                     104                     108              102.828427      -0.266023129552195      -0.184905792360257    -0.00332757716652917
143                     104                     108                     100       0.334746138086272       0.180741951849764       0.377461845732927
144                     106                     110              105.656854      -0.289747085712442      -0.205710544163481      -0.502252658813343
145                     106                     110              102.828427       0.281950596438422       0.204749593693494     0.00545730207862509
146                     106                     110                     100      -0.289407347507619      -0.197445168930099       0.488379845734995
147                     108                     108              105.656854       0.224146492865087       0.240503855258033      -0.361181120516851
148                     108                     108              102.828427      -0.231913266357303      -0.240171451752582    -0.00183256528275435
149                     108                     108                     100       0.230283787037432       0.234551442094762       0.366638194450547
150                     110                     110              105.656854      -0.207938512781694      -0.236806673047496       -0.47939100907942
151                     110                     110              102.828427       0.227479254084096        0.23895058302174   -0.000561255655436822
152                     110                     110                     100      -0.226934472314312      -0.232058546700304       0.476154194456957
153                     112                     108              105.656854       0.191351843061717       0.263542825482611      -0.391783887348932
154                     112                     108              102.828427      -0.206419564137963      -0.272544346927723     0.00562238952521757
155                     112                     108                     100       0.205002576791279       0.268805008040612       0.379791115193635
156                     114                     110              105.656854       -0.20190482654474      -0.237386126421899      -0.427580719529621
157                     114                     110              102.828427       0.218806609627932       0.256056406066799     -0.0133677784872236
158                     114                     110                     100      -0.217076203666641      -0.252578221952507       0.463938695213329
159                     116                     108              105.656854       0.220219042665093       0.274797862318657      -0.418984635432123
160                     116                     108              102.828427      -0.226091387502984      -0.291790900113757      0.0108994722694587
161                     116                     108                     100       0.220178582802511       0.289708162386299       0.393370581841166
162                     118                     110              105.656854      -0.260880955644748      -0.248425802476202      -0.410357146633555
163                     118                     110              102.828427       0.256557182216871       0.267362487728023     -0.0133260710862722
164                     118                     110                     100       -0.24559770956307      -0.263534639888547       0.446580260428555
165                     120                     108              105.656854       0.283689848369649       0.297192793711679      -0.426518672732432
166                     120                     108              102.828427      -0.281787693261577      -0.307194797176418     0.00559241215625609
167                     120                     108                     100        0.27005308539254       0.302383957284265       0.414603301386362
168                     122                     110              105.656854      -0.328705149608604      -0.270367553727362      -0.423045762947035
169                     122                     110              102.828427       0.322182621798076       0.273498877573227   -0.000523918373199061
170                     122                     110                     100      -0.309840430947828      -0.265535553179416       0.419729074719012
171                     124                     108              105.656854       0.372730718655635        0.31012324191272       -0.43353950820106
172                     124                     108              102.828427      -0.365060942920868      -0.312070654522244    -0.00183057413781423
173                     124                     108                     100       0.366649766015265       0.304178678242033       0.438971408304828
174                     126                     110              105.656854      -0.445666136518158      -0.261590779151497      -0.430845831357728
175                     126                     110              102.828427       0.381693614607033       0.262478786028788     0.00543495937149444
176                     126                     110                     100      -0.446036090724237      -0.253355532869891       0.417065491816771
177                     128                     108              105.656854       0.690654942212943       0.289561608679686      -0.325999319446952
178                     128                     108              102.828427      -0.247746598500248       -0.29243162235405    -0.00330700359653811
179                     128                     108                     100       0.691760926214234       0.284880209061712       0.332714623290812
180                     130                     110              105.656854       -1.18312982421797      -0.225305075389147      -0.839880472949134
181                     130                     110              102.828427      -0.510573743090504       0.229007213141563      0.0040237254416316
182                     130                     110                     100        -1.1864878312856      -0.221736551653475       0.832029848192413
183                     100                     112              105.656854        1.11543670760102       0.136974430968264      -0.805415412031628
184                     100                     112              102.828427       0.585670725394482      -0.139082865451249    -0.00372900920239125
185                     100                     112                     100         1.1116108940228        0.13513320385782       0.812418331783384
186                     102                     114              105.656854       -0.63161170330437      -0.168955877138319      -0.372207484197068
187                     102                     114              102.828427       0.180794471266625       0.171943551393367      0.0061150079854701
188                     102                     114                     100      -0.625080273424184       -0.16712120510712       0.359842538713788
189                     104                     112              105.656854       0.389938288571209       0.181387971521814       -0.37623279927824
190                     104                     112              102.828427       -0.31788001053029      -0.182297372172408    -0.00691240838822767
191                     104                     112                     100       0.384157952316452       0.176133116680791       0.391799608711284
192                     106                     114              105.656854      -0.327796905750696      -0.202884824714731      -0.499910191731857
193                     106                     114              102.828427       0.317270179794922       0.205002733165603     0.00972290754190793
194                     106                     114                     100      -0.323330709661146      -0.198699371993693       0.472165004313644
195                     108                     112              105.656854       0.256974619155162       0.218652157023636      -0.359540924751589
196                     108                     112              102.828427      -0.266462114478564      -0.216872059694655    -0.00634585159842562
197                     108                     112                     100       0.265143116313263       0.209473176522257       0.384759856694132
198                     110                     114              105.656854      -0.213032885341434      -0.219187131432146      -0.470001187261454
199                     110                     114              102.828427       0.245850409652909       0.226035855696699     0.00102043713584327
200                     110                     114                     100      -0.247792105522414      -0.219991339705151       0.458634250948768
201                     112                     112              105.656854       0.191148960489521       0.225919656427555      -0.417472032892929