ITEM: TIMESTEP
0
ITEM: NUMBER OF ATOMS
422
ITEM: BOX BOUNDS pp pp pp
0.0000000000000000e+00 3.2000000000000000e+01
0.0000000000000000e+00 3.2000000000000000e+01
0.0000000000000000e+00 3.2000000000000000e+01
ITEM: ATOMS id xu yu zu fx fy fz
1        13.1681805277138        16.0057691495525        8.67909833387522      -0.973371400155817       -1.07310100325945      -0.212636218585177
2        18.8059554234432        15.9676968250065        8.63532058337209        3.36166440767942        2.46928151289611       0.506352880211566
3        17.4311764259487        16.0166265447967        8.68568143203179        -2.3136129225717       -1.93211396095141      -0.367217094705227
4        14.6013787313554        16.0152586353422        8.68715669240641       -2.60101536490993       -2.46627160607011      -0.529641159603436
5        16.7384676196228        14.7871173020173        8.69424245185364       -1.40999673157849        -0.9403873250937      -0.227696300469889
6        15.2792934143139        14.7527590321584        8.66131642344648        3.76660475121999        3.44646375692158       0.802427546212562
7        15.2598834523953        17.2105637927555        8.64439158736779         3.1629033785927        3.08509033618694       0.676310078963861
8        16.7085520075991        17.2344164127601        8.66681196617755       -2.04553584803559       -1.75493591833289      -0.340094283044819
9        14.5671755992299        13.5978649196476        8.70626867847251         -2.006020560132       -2.83981152503338      -0.373691986656066
10        17.5034044808023         13.594252401957        8.69970099807099       -2.90587306947726       -1.68269786772469      -0.212224261213791
11        14.5302687737045        18.4387508748246        8.67425522293162       -2.67835018011824       -2.93320648609768       -0.50589872983133
12        17.4226141439752        18.3912548474989        8.62380403331997        1.05634340363517        2.14675583973759       0.133622726107366
13        13.1719523441724        13.6070856718342        8.70149108393663       -1.92937423826573       -2.80235458720097      -0.389790748532497
14        13.1151238829389        18.3972298370995        8.64952507482519       0.343910556179185       0.441307405466418       0.104011796511137
15        18.8240407573121        13.5412648247162        8.62992253114409        4.32016266593356        3.35120998214666       0.551968323076699
16        18.7995214866212        18.3637181857053         8.6102657151249        2.58998010358683         3.2507343321072       0.414831148979603
17        12.3971174422707        17.1646415477717        8.62717160413175        4.12769338856919        4.87427633340066       0.722449915532659
18        12.4574005643107        14.7994513206346        8.68502150557116       0.822381336004095       0.504249521360051       0.305143702738169
19        19.5552834803761        14.7870893959559        8.66551228368387      -0.990525503730907       -1.53089117882368      -0.336161060863615
20         19.523457390209        17.1807366581403        8.63611941518077        1.50789603652894       0.621985380822905       0.102487103512213
21        20.9829827235455        14.8522827867439        8.68469770092147       -1.69928275894937       -2.08617175913617      -0.491383541258562
22         20.983755651103        17.1892525184281         8.6878142888523         -2.407801148512       -1.94365205766953      -0.464648966411478
23         11.058327208815        14.8521603651465         8.6945515356539       -1.58575984890887       -1.99068463689553       -0.34814369223159
24        11.0375471770977         17.167577136226        8.67611516395231       -3.59583197826545       -3.55366702519743      -0.759701289812807
25        21.6187551212222        16.0240257386004        8.68887866048266       0.481167766160386       -0.38736934091254       0.213414463601984
26        10.4023513820086        15.9964107862014          8.672510807537        1.22747857666682       0.772151354481913        0.44085385136338
27        21.6342503237603        18.2109764188626        8.68190427793628      -0.131845840070696       0.709859545988887      0.0845766285346172
28        21.5964049667334         13.780924249728         8.6396526800333       0.689859648803922         1.7185510969533       0.235907152019281
29        10.3348521648497        18.1496629014186        8.63188741412225        1.01432878135692        1.68184693544799       0.148594687158104
30        10.3984384956438         13.821042422113        8.69106750538327       0.416672495110002       0.144505489509497      0.0789189642446038
31        12.5754449013956        12.5910328792463        8.63242807915295         1.7767251979222        2.40885149324684        0.35472390418964
32        12.6226572375613        19.3800370581713        8.68640373696201      -0.275471002606056      -0.666112501850914      -0.133447912299988
33         19.381222092203        12.6231722938824        8.65775855925107       -0.34045731270349      -0.557163629244822       -0.10420303560991
34        19.3845269294834        19.3682689827299        8.66782672234097       -1.46337538975072       -2.01223251719861      -0.280764729698406
35        14.9699672033895        12.5766411944022        8.66453063052261       0.355557343203381       0.816307660849256       0.122216246457413
36        14.9352402043197        19.3815372417785        8.63666509563769       0.911712940605569        1.30756748955167       0.105582782541026
37        17.0662664856642         12.619299471382        8.70512456164267      -0.463108569829583      -0.102533490767371       0.067188370167678
38        17.0056989395313        19.3983549725849         8.6514184820003      -0.116433109186355      -0.495637049614601     -0.0942372612949707
39                       0                       0                5.656854                       0                       0                       0
40                       0                       0                2.828427                       0                       0                       0
41                       0                       0                       0                       0                       0                       0
42                       2                       2                5.656854                       0                       0                       0
43                       2                       2                2.828427                       0                       0                       0
44                       2                       2                       0                       0                       0                       0
45                       4                       0                5.656854                       0                       0                       0
46                       4                       0                2.828427                       0                       0                       0
47                       4                       0                       0                       0                       0                       0
48                       6                       2                5.656854                       0                       0                       0
49                       6                       2                2.828427                       0                       0                       0
50                       6                       2                       0                       0                       0                       0
51                       8                       0                5.656854                       0                       0                       0
52                       8                       0                2.828427                       0                       0                       0
53                       8                       0                       0                       0                       0                       0
54                      10                       2                5.656854                       0                       0                       0
55                      10                       2                2.828427                       0                       0                       0
56                      10                       2                       0                       0                       0                       0
57                      12                       0                5.656854                       0                       0                       0
58                      12                       0                2.828427                       0                       0                       0
59                      12                       0                       0                       0                       0                       0
60                      14                       2                5.656854                       0                       0                       0
61                      14                       2                2.828427                       0                       0                       0
62                      14                       2                       0                       0                       0                       0
63                      16                       0                5.656854                       0                       0                       0
64                      16                       0                2.828427                       0                       0                       0
65                      16                       0                       0                       0                       0                       0
66                      18                       2                5.656854                       0                       0                       0
67                      18                       2                2.828427                       0                       0                       0
68                      18                       2                       0                       0                       0                       0
69                      20                       0                5.656854                       0                       0                       0
70                      20                       0                2.828427                       0                       0                       0
71                      20                       0                       0                       0                       0                       0
72                      22                       2                5.656854                       0                       0                       0
73                      22                       2                2.828427                       0                       0                       0
74                      22                       2                       0                       0                       0                       0
75                      24                       0                5.656854                       0                       0                       0
76                      24                       0                2.828427                       0                       0                       0
77                      24                       0                       0                       0                       0                       0
78                      26                       2                5.656854                       0                       0                       0
79                      26                       2                2.828427                       0                       0                       0
80                      26                       2                       0                       0                       0                       0
81                      28                       0                5.656854                       0                       0                       0
82                      28                       0                2.828427                       0                       0                       0
83                      28                       0                       0                       0                       0                       0
84                      30                       2                5.656854                       0                       0                       0
85                      30                       2                2.828427                       0                       0                       0
86                      30                       2                       0                       0                       0                       0
87                       0                       4                5.656854                       0                       0                       0
88                       0                       4                2.828427                       0                       0                       0
89                       0                       4                       0                       0                       0                       0
90                       2                       6                5.656854                       0                       0                       0
91                       2                       6                2.828427                       0                       0                       0
92                       2                       6                       0                       0                       0                       0
93                       4                       4                5.656854                       0                       0                       0
94                       4                       4                2.828427                       0                       0                       0
95                       4                       4                       0                       0                       0                       0
96                       6                       6                5.656854                       0                       0                       0
97                       6                       6                2.828427                       0                       0                       0
98                       6                       6                       0                       0                       0                       0
99                       8                       4                5.656854                       0                       0                       0
100                       8                       4                2.828427                       0                       0                       0
101                       8                       4                       0                       0                       0                       0
102                      10                       6                5.656854                       0                       0                       0
103                      10                       6                2.828427                       0                       0                       0
104                      10                       6                       0                       0                       0                       0
105                      12                       4                5.656854                       0                       0                       0
106                      12                       4                2.828427                       0                       0                       0
107                      12                       4                       0                       0                       0                       0
108                      14                       6                5.656854                       0                       0                       0
109                      14                       6                2.828427                       0                       0                       0
110                      14                       6                       0                       0                       0                       0
111                      16                       4                5.656854                       0                       0                       0
112                      16                       4                2.828427                       0                       0                       0
113                      16                       4                       0                       0                       0                       0
114                      18                       6                5.656854                       0                       0                       0
115                      18                       6                2.828427                       0                       0                       0
116                      18                       6                       0                       0                       0                       0
117                      20                       4                5.656854                       0                       0                       0
118                      20                       4                2.828427                       0                       0                       0
119                      20                       4                       0                       0                       0                       0
120                      22                       6                5.656854                       0                       0                       0
121                      22                       6                2.828427                       0                       0                       0
122                      22                       6                       0                       0                       0                       0
123                      24                       4                5.656854                       0                       0                       0
124                      24                       4                2.828427                       0                       0                       0
125                      24                       4                       0                       0                       0                       0
126                      26                       6                5.656854                       0                       0                       0
127                      26                       6                2.828427                       0                       0                       0
128                      26                       6                       0                       0                       0                       0
129                      28                       4                5.656854                       0                       0                       0
130                      28                       4                2.828427                       0                       0                       0
131                      28                       4                       0                       0                       0                       0
132                      30                       6                5.656854                       0                       0                       0
133                      30                       6                2.828427                       0                       0                       0
134                      30                       6                       0                       0                       0                       0
135                       0                       8                5.656854                       0                       0                       0
136                       0                       8                2.828427                       0                       0                       0
137                       0                       8                       0                       0                       0                       0
138                       2                      10                5.656854                       0                       0                       0
139                       2                      10                2.828427                       0                       0                       0
140                       2                      10                       0                       0                       0                       0
141                       4                       8                5.656854                       0                       0                       0
142                       4                       8                2.828427                       0                       0                       0
143                       4                       8                       0                       0                       0                       0
144                       6                      10                5.656854                       0                       0                       0
145                       6                      10                2.828427                       0                       0                       0
146                       6                      10                       0                       0                       0                       0
147                       8                       8                5.656854                       0                       0                       0
148                       8                       8                2.828427                       0                       0                       0
149                       8                       8                       0                       0                       0                       0
150                      10                      10                5.656854                       0                       0                       0
151                      10                      10                2.828427                       0                       0                       0
152                      10                      10                       0                       0                       0                       0
153                      12                       8                5.656854                       0                       0                       0
154                      12                       8                2.828427                       0                       0                       0
155                      12                       8                       0                       0                       0                       0
156                      14                      10                5.656854                       0                       0                       0
157                      14                      10                2.828427                       0                       0                       0
158                      14                      10                       0                       0                       0                       0
159                      16                       8                5.656854                       0                       0                       0
160                      16                       8                2.828427                       0                       0                       0
161                      16                       8                       0                       0                       0                       0
162                      18                      10                5.656854                       0                       0                       0
163                      18                      10                2.828427                       0                       0                       0
164                      18                      10                       0                       0                       0                       0
165                      20                       8                5.656854                       0                       0                       0
166                      20                       8                2.828427                       0                       0                       0
167                      20                       8                       0                       0                       0                       0
168                      22                      10                5.656854                       0                       0                       0
169                      22                      10                2.828427                       0                       0                       0
170                      22                      10                       0                       0                       0                       0
171                      24                       8                5.656854                       0                       0                       0
172                      24                       8                2.828427                       0                       0                       0
173                      24                       8                       0                       0                       0                       0
174                      26                      10                5.656854                       0                       0                       0
175                      26                      10                2.828427                       0                       0                       0
176                      26                      10                       0                       0                       0                       0
177                      28                       8                5.656854                       0                       0                       0
178                      28                       8                2.828427                       0                       0                       0
179                      28                       8                       0                       0                       0                       0
180                      30                      10                5.656854                       0                       0                       0
181                      30                      10                2.828427                       0                       0                       0
182                      30                      10                       0                       0                       0                       0
183                       0                      12                5.656854                       0                       0                       0
184                       0                      12                2.828427                       0                       0                       0
185                       0                      12                       0                       0                       0                       0
186                       2                      14                5.656854                       0                       0                       0
187                       2                      14                2.828427                       0                       0                       0
188                       2                      14                       0                       0                       0                       0
189                       4                      12                5.656854                       0                       0                       0
190                       4                      12                2.828427                       0                       0                       0
191                       4                      12                       0                       0                       0                       0
192                       6                      14                5.656854                       0                       0                       0
193                       6                      14                2.828427                       0                       0                       0
194                       6                      14                       0                       0                       0                       0
195                       8                      12                5.656854                       0                       0                       0
196                       8                      12                2.828427                       0                       0                       0
197                       8                      12                       0                       0                       0                       0
198                      10                      14                5.656854                       0                       0                       0
199                      10                      14                2.828427                       0                       0                       0
200                      10                      14                       0                       0                       0                       0
201                      12                      12                5.656854                       0                       0                       0