ITEM: TIMESTEP
0
ITEM: NUMBER OF ATOMS
422
ITEM: BOX BOUNDS ff ff ff
0.0000000000000000e+00 2.3200000000000000e+02
0.0000000000000000e+00 2.3200000000000000e+02
0.0000000000000000e+00 2.3200000000000000e+02
ITEM: ATOMS id xu yu zu fx fy fz
1        114.245932193839        115.983520815677              108.656854     0.00599282287959092   -0.000479114391038714      0.0177154194317345
2        119.927484840071        115.989226241634              108.656854    -0.00507410899845949    -0.00119789306912045    -0.00609736430566141
3        118.502344993917        115.987795112765              108.656854      0.0063692420796954     0.00335257098473652       0.014515086894234
4        115.671072038949        115.984951942936              108.656854     0.00383726024537189     0.00299794631379067    0.000588474859248165
5        117.801075167769        114.749724850164              108.656854    -0.00601078318036845      0.0418766765283736        0.13056328901127
6        116.374826990867        114.748292608712              108.656854    -0.00773150496127331      0.0105456310432661      0.0197418882874108
7        116.372341865028        117.223022205388              108.656854    -0.00734703205168528    -0.00282024411582964      0.0185833931471525
8        117.798590041422        117.224454446583              108.656854     -0.0059677776015567     -0.0345563885555802       0.126518604918409
9        115.617756920757        113.548446241175              108.656854      0.0168551831354405     -0.0175680188218134      0.0258763127019197
10        118.560553482731        113.551401403886              108.656854      0.0224465216578703     -0.0361580914339529       0.153862167713777
11        115.612863550773        118.421345651893              108.656854      0.0176111342933837    -0.00151274873568067      0.0288240714133763
12        118.555660110655        118.424300814179              108.656854      0.0232628498082179      0.0169108995384671       0.158503405017234
13        114.227311260236        113.562444587898              108.656854      0.0309984309453666     -0.0407761145566343       0.182891909264945
14        114.222448808114        118.404554762274              108.656854      0.0309384387578618      0.0231163451421492       0.188252582018919
15        119.950968226168        113.568192293572              108.656854     -0.0273037893083872     -0.0160455764668262      0.0156298007663825
16        119.946105771496         118.41030247058              108.656854     -0.0263501632497128    0.000701679913203769      0.0175185938503777
17        113.526795838139         117.19431994364              108.656854     -0.0148764940611089     -0.0248141188861002       0.107342168069562
18         113.52922905874        114.771279815063              108.656854     -0.0155478711244808      0.0341106172912602       0.112183082947069
19        120.646621196692        114.778427112272              108.656854     -0.0121419022719372      0.0113536815606403       0.033494397696739
20        120.644187975028         117.20146724296              108.656854     -0.0118858138245592    -0.00241334671512807      0.0321169028025175
21        122.055135022624        114.824435085822              108.656854       0.120146996097845       0.143469186216541      0.0574698973821788
22        122.052791362251        117.158288229576              108.656854       0.117358042992179     -0.0453252267789519       0.051609014422365
23        112.120625673161        114.814458829493              108.656854     0.00274791440305858       0.111457284843152      0.0442333434448016
24        112.118282013145        117.148311972274              108.656854     0.00372172500531764     -0.0034511467016049      0.0409050386206559
25        122.686726460739        115.991997078118              108.656854     -0.0231736620169097     -0.0254834463118685    -0.00326340315293528
26        111.486690574472        115.980749978664              108.656854    -0.00458193814115862     -0.0280240936600048     -0.0498103993626358
27        122.709196045824        118.185922140926              108.656854     -0.0769300610215594     -0.0437275506736931       0.153990964307112
28          122.7136022867        113.798121569695              108.656854     -0.0842006521959799     -0.0768495311016177       0.142759753052606
29        111.459814750727        118.174625487296              108.656854      0.0400333389286913     -0.0589218882422775      0.0234266164061638
30         111.46422099026         113.78682491673              108.656854      0.0417533937220739     -0.0764599025312971       0.010562780573606
31        113.699866822243        112.615454800093              108.656854     -0.0218755589093663      0.0239879279602106    -0.00663033755314959
32        113.693103500599        119.350483321209              108.656854     -0.0216691900074025      0.0183454241360116       -0.01247954816141
33        120.480313532952        112.622263734631              108.656854      0.0822441242924342       0.027035199058752      0.0074827756862414
34        120.473550207142        119.357292260389              108.656854       0.079440398181445      0.0130137322548813     0.00193286673550448
35        116.062286572867         112.56896056388              108.656854      0.0151663602820141      0.0162319713557316     0.00710405170971192
36        116.055425108682        119.401722146141              108.656854      0.0145029700665968      0.0112484193508502     0.00304185011022253
37        118.117991924022        112.571024909739              108.656854      0.0114173104406327      0.0131842003258198     -0.0087876452052684
38        118.111130457531        119.403786490585              108.656854      0.0104168248925377        0.01395009689613     -0.0124452330314801
39                     100                     100              105.656854       0.212362225882646       0.213940076727496       -0.97569202228944
40                     100                     100              102.828427       0.431839833697515       0.430439438907427   -0.000367673093188729
41                     100                     100                     100       0.212286777118172        0.21345406906121       0.976320804426241
42                     102                     102              105.656854      -0.344869118957429      -0.347508444287769      -0.277952579920855
43                     102                     102              102.828427     -0.0505770762190595     -0.0483220023083133    0.000675052805890933
44                     102                     102                     100      -0.344730764230161      -0.346515503745226       0.276834811156526
45                     104                     100              105.656854      0.0961032827718077       0.960260432542628      -0.808904774653971
46                     104                     100              102.828427     -0.0640155841938556       0.726519528706469   -0.000339859528908698
47                     104                     100                     100      0.0963276203319321       0.959599596474603       0.809455593130868
48                     106                     102              105.656854      -0.149738799948822      -0.515366119220212      -0.381564256842021
49                     106                     102              102.828427       0.142658838616491      0.0669299197642761    0.000554884348722092
50                     106                     102                     100      -0.150384909716752      -0.514058198281897       0.380705276154018
51                     108                     100              105.656854       0.109759080589891        1.06068613505465      -0.801775279268775
52                     108                     100              102.828427      -0.111665486276281       0.639406664938498    5.32530018224147e-05
53                     108                     100                     100       0.110642399885932        1.06035727897531       0.801637943765674
54                     110                     102              105.656854      -0.143266834034616      -0.583179900267014      -0.374185823176205
55                     110                     102              102.828427       0.147912593746689       0.135699390961342   -0.000491469948512703
56                     110                     102                     100      -0.145427606734738      -0.583138838223579       0.375074318064017
57                     112                     100              105.656854       0.131265181165077        1.10915278813026      -0.810501919159548
58                     112                     100              102.828427      -0.135104194823721       0.588937444203171    0.000921910369524279
59                     112                     100                     100       0.132550038032383        1.11016952189846       0.808919927852389
60                     114                     102              105.656854      -0.162512174270024      -0.619716860201614      -0.361642546595731
61                     114                     102              102.828427       0.167761924661237        0.17538995673587    -0.00229807862343309
62                     114                     102                     100      -0.164608619122835      -0.622974792156905       0.365456894479805
63                     116                     100              105.656854       0.165676863097485        1.14389963339942      -0.821215294118372
64                     116                     100              102.828427      -0.170060269944025       0.552299452383221     0.00164549998040349
65                     116                     100                     100       0.166088342081865        1.14624101984588       0.818451098374848
66                     118                     102              105.656854      -0.208066595592688      -0.650031431286717      -0.347714248005599
67                     118                     102              102.828427       0.213308272586782       0.207426864402908     -0.0029073551077726
68                     118                     102                     100      -0.207347548042881      -0.654509164244156       0.352507430655272
69                     120                     100              105.656854       0.222741881830207        1.18166762279457      -0.835419709897163
70                     120                     100              102.828427      -0.228254624844351       0.513552438995812      0.0014039545489014
71                     120                     100                     100       0.221771455520407        1.18355322915284       0.833048871569228
72                     122                     102              105.656854      -0.288822352289423      -0.686446636921171       -0.32989172262909
73                     122                     102              102.828427       0.293538961200644       0.243289254699693    -0.00148901222518593
74                     122                     102                     100      -0.286304353933294      -0.688144825794711       0.332401085294613
75                     124                     100              105.656854       0.326606564012388        1.23600959386022      -0.852268868642578
76                     124                     100              102.828427      -0.323165826242174       0.460037005743591    0.000491970418149323
77                     124                     100                     100       0.325392734024233        1.23630978363199       0.851396612008472
78                     126                     102              105.656854      -0.462471200237908      -0.727168788586738      -0.331864560341635
79                     126                     102              102.828427       0.397788950250851        0.28127314989246    0.000123884727709528
80                     126                     102                     100      -0.461005265221326      -0.726247607082896       0.331738383024395
81                     128                     100              105.656854       0.708670578940235        1.34053970521077       -0.75479064231162
82                     128                     100              102.828427      -0.281245243912875        0.39624513254195   -0.000183749405063757
83                     128                     100                     100       0.708117152365627        1.33995612429389       0.755060864301335
84                     130                     102              105.656854       -1.34107481859656        -0.7088692721431      -0.755430681059572
85                     130                     102              102.828427      -0.395459415545491        0.28106384566866    0.000676356638933975
86                     130                     102                     100       -1.34090140094277      -0.707631777644305       0.754343078485494
87                     100                     104              105.656854       0.959332516363249      0.0997253471281598      -0.808517958611964
88                     100                     104              102.828427       0.727426328310935     -0.0670395489339671   -0.000935784301098873
89                     100                     104                     100       0.958761084157481      0.0986451770757821       0.810084299429752
90                     102                     106              105.656854       -0.51423522191749      -0.156376240263123      -0.382523192641168
91                     102                     106              102.828427      0.0657047575685777       0.147823279307633     0.00190061502188353
92                     102                     106                     100      -0.512874992061603      -0.154011909290436       0.379440406083818
93                     104                     104              105.656854       0.247990518080273       0.252762572403997      -0.388556113382703
94                     104                     104              102.828427      -0.180597536804961      -0.184435706243143    -0.00132340478248349
95                     104                     104                     100       0.247749005186742       0.250563726077765       0.390675781458151
96                     106                     106              105.656854      -0.235134624390418      -0.244732724320114      -0.504583116960269
97                     106                     106              102.828427       0.226605385045208       0.233557833428745     0.00276384275699689
98                     106                     106                     100      -0.234859559966297      -0.239401482994733       0.500202073922006
99                     108                     104              105.656854       0.174315559257813       0.339867658594193      -0.374837315873894
100                     108                     104              102.828427       -0.17784540225785      -0.269644539375466     -0.0008206308377479
101                     108                     104                     100       0.176376725225636       0.337266661763356       0.376062576819058
102                     110                     106              105.656854      -0.183703738618202      -0.297183861054117      -0.491735911131002
103                     110                     106              102.828427       0.192763950054491       0.287746297193039    0.000586586070215963
104                     110                     106                     100      -0.190917924832656      -0.292784210845831       0.490807881234899
105                     112                     104              105.656854       0.165936601439894       0.382028237259781      -0.390013817381889
106                     112                     104              102.828427      -0.173284549127179      -0.315974825123963     0.00208121085556193
107                     112                     104                     100       0.171118408627119       0.384141093243007       0.386524277606887
108                     114                     106              105.656854      -0.183239135730896      -0.311549513053796      -0.468640917484334
109                     114                     106              102.828427       0.194520842088969       0.313528686891491    -0.00701847443420159
110                     114                     106                     100      -0.193488406990651      -0.322976381501753       0.480703010009711
111                     116                     104              105.656854       0.195063708201797       0.405152475611303       -0.40635664500178
112                     116                     104              102.828427      -0.201312504420416      -0.344051573049727     0.00524540434788182
113                     116                     104                     100       0.196965103670055       0.413839080484915       0.397744650784176
114                     118                     106              105.656854      -0.236195528939774      -0.325622458383948      -0.449398790604611
115                     118                     106              102.828427       0.240465832428677       0.332630479103447    -0.00996033649661989
116                     118                     106                     100      -0.232589257264316      -0.343651206546513       0.466474147533329
117                     120                     104              105.656854        0.25958340329723       0.432819200956613      -0.422621531462621
118                     120                     104              102.828427      -0.264206021173745      -0.371110302767692     0.00414029443678778
119                     120                     104                     100       0.255229787342657       0.439148537274032       0.415795030395028
120                     122                     106              105.656854      -0.320986414655487      -0.357340585729422      -0.435904369764468
121                     122                     106              102.828427       0.320938556185212       0.354969963653006    -0.00330027062498949
122                     122                     106                     100      -0.309742330973208      -0.360457762865798       0.441555532168247
123                     124                     104              105.656854       0.369773426476874       0.462157811935479      -0.439138225319776
124                     124                     104              102.828427      -0.363508368598739      -0.396759483996704    0.000467501251965562
125                     124                     104                     100       0.365662115963052       0.461314994848577       0.438266463899464
126                     126                     106              105.656854      -0.469005303753391      -0.369295945350224      -0.441527600250193
127                     126                     106              102.828427        0.40292918473886       0.361216362869112     0.00227191609233317
128                     126                     106                     100      -0.466105161807431      -0.363038523728354       0.437893114582789
129                     128                     104              105.656854       0.729079970518362       0.462564442949915      -0.330632777104509
130                     128                     104              102.828427      -0.283471366381344      -0.397067267708814    -0.00125657807919146
131                     128                     104                     100       0.728401433246823        0.45984213882084       0.332592345872854
132                     130                     106              105.656854       -1.23723028927533      -0.329359440001203      -0.853972549386706
133                     130                     106              102.828427      -0.458121733575777       0.324401024842901     0.00245350999110206
134                     130                     106                     100       -1.23844878573007      -0.325536459132191       0.850063577819216
135                     100                     108              105.656854        1.06286714541019       0.115832166845026      -0.800330383139892
136                     100                     108              102.828427       0.638103452788993      -0.116443227789306    -0.00203955791362032
137                     100                     108                     100        1.06087229567634       0.114030412446013       0.803679121061054
138                     102                     110              105.656854      -0.589200857892018      -0.153875834530367      -0.377900187938686
139                     102                     110              102.828427       0.138902387885495       0.155510202147559     0.00426102566419802
140                     102                     110                     100       -0.58426964664389      -0.150259272033321       0.371056257090028
141                     104                     108              105.656854       0.339110976682362        0.18765830267125       -0.37202404557789
142                     104                     108              102.828427      -0.268089979902743      -0.187059952734897    -0.00417537010340484
143                     104                     108                     100       0.335548269583554       0.182065063781557       0.378706978753706
144                     106                     110              105.656854      -0.300209973626778      -0.213347028898108      -0.502107965321298
145                     106                     110              102.828427       0.285943635347247       0.209339992045105     0.00971031932345314
146                     106                     110                     100      -0.290101855309664      -0.199443029851211       0.485289632337926
147                     108                     108              105.656854       0.228158633132415       0.250648059815116      -0.358675707320594
148                     108                     108              102.828427      -0.231918777024501        -0.2452306629104    -0.00587406389016905
149                     108                     108                     100       0.229207841589173       0.236507963611503       0.369085164740648
150                     110                     110              105.656854      -0.204730653337656      -0.267888739532566      -0.500587402835383
151                     110                     110              102.828427       0.221474908306186       0.246727713447697      0.0102379159213831
152                     110                     110                     100      -0.222946462419479      -0.233887118387806       0.472493992464107
153                     112                     108              105.656854       0.175861704375545       0.269695072790061      -0.385890806311562
154                     112                     108              102.828427      -0.197432594668673      -0.273846427127041     0.00343464058117977
155                     112                     108                     100       0.200499148386228       0.268808770345003       0.380232934034454
156                     114                     110              105.656854      -0.155603420960899      -0.203309445293139      -0.402245969517337
157                     114                     110              102.828427       0.201738674791164       0.250970767044927     -0.0194980733248631
158                     114                     110                     100      -0.210401275290744      -0.250559724172894        0.46720414464285
159                     116                     108              105.656854       0.207737823091541       0.251883535781725      -0.424618936537598
160                     116                     108              102.828427      -0.219762843364599      -0.282445037220887      0.0184549148476869
161                     116                     108                     100       0.217314702712599       0.286209911062391       0.389149899937931
162                     118                     110              105.656854      -0.262047564270552      -0.185662006680043      -0.358398128813071
163                     118                     110              102.828427       0.257636041732543        0.25463073375777     -0.0317990525489354
164                     118                     110                     100      -0.245850368762503       -0.25929276289216        0.45455436035764
165                     120                     108              105.656854       0.295342734166949       0.276987692101077      -0.435711323286986
166                     120                     108              102.828427      -0.288062508111315      -0.299275442138277      0.0130942126807219
167                     120                     108                     100        0.27271874902546       0.299280376902578       0.410508987384166
168                     122                     110              105.656854      -0.377437154469998      -0.265332703496548      -0.410805971950833
169                     122                     110              102.828427       0.337930918566407       0.272283681690546    -0.00347222636352637
170                     122                     110                     100      -0.315848071818928      -0.264293778394975       0.422274180490514
171                     124                     108              105.656854       0.383843790233411       0.317879328070468      -0.432646697990091
172                     124                     108              102.828427       -0.37190679575178      -0.314250634314764    -0.00290802336521232
173                     124                     108                     100       0.370308044111843       0.304419799811093       0.438991517306365
174                     126                     110              105.656854      -0.443301175160169      -0.281878653894183      -0.440718322895625
175                     126                     110              102.828427       0.384795875865676       0.268805911978072      0.0124237979649515
176                     126                     110                     100      -0.448968764928802      -0.255024572808129       0.414497427591206
177                     128                     108              105.656854       0.689842853110066       0.296271934814856      -0.325094614511916
178                     128                     108              102.828427      -0.248322990650646      -0.296053608375079    -0.00552818281059936
179                     128                     108                     100       0.692832459377551       0.286380627478249       0.334190947525403
180                     130                     110              105.656854       -1.17858393589584      -0.230732629475832      -0.840998518318489
181                     130                     110              102.828427      -0.512389943209601       0.232240905833473     0.00679951803658242
182                     130                     110                     100       -1.18636816988161        -0.2232509038848       0.829957866127298
183                     100                     112              105.656854        1.11720444481036        0.13720349075528      -0.807341672783639
184                     100                     112              102.828427       0.583692900520169      -0.139591550715075    -0.00343973088928346
185                     100                     112                     100        1.11293304421524       0.135570860454741       0.812926538129103
186                     102                     114              105.656854      -0.636301733999482      -0.169429478182779      -0.368942753957762
187                     102                     114              102.828427       0.184775630907533       0.172569799801621      0.0065783629563547
188                     102                     114                     100      -0.627131684818434      -0.167547411137431       0.358384311920134
189                     104                     112              105.656854       0.398699145094171       0.183980022294907      -0.379224621061078
190                     104                     112              102.828427      -0.323059836630585      -0.184539822047764    -0.00917860384836337
191                     104                     112                     100       0.386065091562936       0.177345809799397       0.394319817382255
192                     106                     114              105.656854      -0.353124634104762      -0.206971815674659      -0.501829060088524
193                     106                     114              102.828427       0.325834579940742        0.20741579457749      0.0185673915734568
194                     106                     114                     100      -0.324959519499806      -0.199702041276347       0.466904888337048
195                     108                     112              105.656854       0.292759395311571       0.242547144139359      -0.335491533563488
196                     108                     112              102.828427      -0.270351122564248      -0.223662100690368     -0.0207900692786533
197                     108                     112                     100        0.26406196140963       0.211538643642751       0.390671776297333
198                     110                     114              105.656854      -0.234156575578839       -0.20890749166866      -0.618179607899277
199                     110                     114              102.828427       0.236057242269056       0.228629100385841       0.026723041658964
200                     110                     114                     100      -0.241961183863948      -0.220827138008951       0.451979899529042
201                     112                     112              105.656854       0.103014855878332       0.268955761162015      -0.343197603217229