ITEM: TIMESTEP
0
ITEM: NUMBER OF ATOMS
422
ITEM: BOX BOUNDS pp pp pp
0.0000000000000000e+00 3.2000000000000000e+01
0.0000000000000000e+00 3.2000000000000000e+01
0.0000000000000000e+00 3.2000000000000000e+01
ITEM: ATOMS id xu yu zu fx fy fz
1         13.114003492211        15.9515921140497        8.62492129837246    -0.00659752752136523     0.00172813682546571      0.0107617911535543
2        18.8324126153051        15.9941540168684        8.66177777523399     0.00584448282566423    0.000195876254133908     0.00774859809668897
3        17.4421013617989        16.0275514806469        8.69660636788192    -0.00460268536356565    -0.00104490136343551      0.0090534289621356
4        14.5740987998135        15.9879787038003        8.65987676086443     0.00527963154329932    0.000510821894463729      0.0128065089411398
5        16.7402891998506        14.7889388822451        8.69606403208145     -0.0205961170250134      0.0133243179539883      0.0331018912008493
6        15.2453261601219        14.7187917779664        8.62734916925446      0.0282993666682063      0.0168408654345138      0.0524990626257169
7        15.2831433004575        17.2338236408177        8.66765143542996       0.022703841118989     -0.0140860555634043       0.037829890412023
8        16.6997428168913        17.2256072220522         8.6580027754697     -0.0228672396341554     -0.0142103169523917      0.0379933297530355
9        14.4814548964221        13.5121442168399        8.62054797566475      0.0315948687708593     -0.0320156694266727       0.169853970588261
10        17.4364599062056        13.5273078273603        8.63275642347424     -0.0338403539895226     -0.0283760270276913       0.154362588886543
11        14.5010476439108        18.4095297450309        8.64503409313787      0.0310945968587627      0.0254059864798946       0.160477668366202
12        17.4250938708437        18.3937345743674        8.62628376018853     -0.0366003362332887      0.0250504809017122       0.164422006746698
13        13.0922212690827        13.5273545967446        8.62176000884697     -0.0410681561908536     -0.0214221385590028       0.112789933172915
14        13.0996052211853         18.381711175346        8.63400641307167     -0.0413210381037792      0.0175436241575726       0.114682469685072
15        18.8189797754703        13.5362038428744        8.62486154930229      0.0406470533920876      -0.023024184357772       0.124906512322074
16        18.8829012070404        18.4470979061246        8.69364543554411      0.0323136700594829      0.0163785066163236      0.0887012725835513
17        12.4626205142164        17.2301446197174        8.69267467607742     -0.0143373755233996    -0.00855551525928508      0.0173875065026162
18        12.4429912184215        14.7850419747453         8.6706121596819     -0.0146352439797234     0.00896443170227332      0.0189358804266176
19         19.502218470698        14.7340243862778        8.61244727400572      0.0208385678092382      0.0117524165725124      0.0331635631074375
20        19.5418125755011        17.1990918434324        8.65447460047284      0.0156959749148476    -0.00973439299155803      0.0214981217948291
21        20.9224646731431        14.7917647363414        8.62417965051904     -0.0300570728893602      0.0222751091973936      0.0654055515716728
22        20.9949195763852        17.2004164437103         8.6989782141345     -0.0236565361133725     -0.0189017708730877      0.0518247283661269
23        11.0419753555854        14.8358085119169        8.67819968242433      0.0241964560672598      0.0195221142764033      0.0513414472122661
24        11.0635231146374        17.1935530737657        8.70209110149204       0.022731378049149      -0.017364275633811      0.0458910328227346
25        21.6105232455761        16.0157938629543        8.68064678483659    -0.00133811385370628   -0.000281070153189551    -0.00304726195335937
26        10.3907318612315        15.9847912654243        8.66089128675991     0.00144666572334269    0.000290262175059573    -0.00218531192252301
27         21.613428661069        18.1901547561713        8.66108261524494      -0.010870062066842     0.00533848174742307      0.0668066662742648
28           21.6395512929        13.8240705758945        8.68279900619982    -0.00948569519368243    -0.00462303840731311      0.0620934473508962
29        10.3835016722959        18.1983124088648        8.68053692156847      0.0100139477274235      0.0051700915840498      0.0614296666814432
30        10.3330404626916        13.7556443891608        8.62566947243108      0.0107992168676754    -0.00791824027627271      0.0783660307080436
31        12.5679851126554         12.583573090506        8.62496829041271   -0.000574099983940593   -0.000561527062441438    -0.00924065501438952
32        12.5438807205364        19.3012605411464        8.60762721993711   -0.000840907320172841    0.000692279152145471    -0.00883434483838556
33        19.4149927945242        12.6569429962036        8.69152926157234    0.000523732730187711   -0.000466937355448205    -0.00928095518112886
34        19.3826916533897        19.3664337066363        8.66599144624733    0.000592799239095957    0.000578881118898527    -0.00914364074647715
35        14.9390583546879        12.5457323457005        8.63362178182096    0.000885681271112004    -0.00158983121945611    -0.00755686326298751
36        15.0006255698419        19.4469226073007        8.70205046115988    0.000600557832863034     0.00106859322871781    -0.00836234219781539
37        16.9919051515054        12.5449381372232        8.63076322748389   -0.000859061564280094    -0.00143313645489813    -0.00783962406987065
38         16.990733025332        19.3833890583856        8.63645256780101    -0.00101889200253516     0.00156715542261908    -0.00743717404566019
39                       0                       0                5.656854                       0                       0                       0
40                       0                       0                2.828427                       0                       0                       0
41                       0                       0                       0                       0                       0                       0
42                       2                       2                5.656854    5.96998966563835e-10    8.42202504961088e-10    2.12693047261119e-10
43                       2                       2                2.828427                       0                       0                       0
44                       2                       2                       0                       0                       0                       0
45                       4                       0                5.656854                       0                       0                       0
46                       4                       0                2.828427                       0                       0                       0
47                       4                       0                       0                       0                       0                       0
48                       6                       2                5.656854    1.88246965631966e-08    3.79890564863937e-08     9.7622161969501e-09
49                       6                       2                2.828427    6.97722528135138e-10    1.42755207164083e-09    7.20293237966088e-10
50                       6                       2                       0                       0                       0                       0
51                       8                       0                5.656854    6.89330589253936e-10    1.27270715471918e-10    4.83740004697155e-10
52                       8                       0                2.828427     4.0179157991847e-10    6.92302955065471e-11    5.10398185496454e-10
53                       8                       0                       0                       0                       0                       0
54                      10                       2                5.656854    8.17161373848639e-08    3.16455192614701e-07    8.32244804073835e-08
55                      10                       2                2.828427    2.98251868640209e-09    1.15679843052979e-08    5.92978822985451e-09
56                      10                       2                       0    1.03215868507471e-09    4.48251851001876e-09    3.47799447964191e-09
57                      12                       0                5.656854    1.37781660013319e-09     5.6859527029239e-10     2.2449023033483e-09
58                      12                       0                2.828427    1.73844831905009e-09    7.12215123936222e-10     5.3286460670119e-09
59                      12                       0                       0                       0                       0                       0
60                      14                       2                5.656854    4.80146717052159e-08    7.74803472464771e-07    2.06693351654373e-07
61                      14                       2                2.828427    1.64478132874325e-09    2.69837994965177e-08    1.40113692318071e-08
62                      14                       2                       0    7.88549247076833e-10    1.15834683448083e-08    9.06637186370466e-09
63                      16                       0                5.656854   -2.90307332394818e-11    6.07206562678323e-10    3.35001489535847e-09
64                      16                       0                2.828427    1.67909735206163e-10    1.73124700194066e-09    7.81751680171697e-09
65                      16                       0                       0                       0                       0                       0
66                      18                       2                5.656854   -5.40611377494408e-08    7.51285035035167e-07    2.00661827393064e-07
67                      18                       2                2.828427   -1.87661683391526e-09    2.62173918664208e-08    1.36027996757051e-08
68                      18                       2                       0    -9.0655032733611e-10    1.12381259139603e-08    8.79089730553411e-09
69                      20                       0                5.656854   -1.35497415723027e-09    2.31248364612167e-10    2.19109467321998e-09
70                      20                       0                2.828427   -1.54589330858431e-09    1.29354557603418e-09    4.76058303238982e-09
71                      20                       0                       0                       0                       0                       0
72                      22                       2                5.656854   -7.73787737324097e-08    2.93850072562543e-07    7.75051722671367e-08
73                      22                       2                2.828427   -2.75568589448962e-09    1.05824471363781e-08     5.4249498306601e-09
74                      22                       2                       0   -9.69096565899849e-10    4.06790065728646e-09    3.15527662536637e-09
75                      24                       0                5.656854   -6.67036802330973e-10   -4.63308104643278e-12    4.67175420272629e-10
76                      24                       0                2.828427   -3.78811636685556e-10   -1.55238501374193e-11    4.81612385119001e-10
77                      24                       0                       0                       0                       0                       0
78                      26                       2                5.656854   -1.72967624737394e-08    3.48214753878617e-08     8.9824415413962e-09
79                      26                       2                2.828427   -5.97872840742954e-10    1.25331641996012e-09    6.29914639705641e-10
80                      26                       2                       0                       0                       0                       0
81                      28                       0                5.656854                       0                       0                       0
82                      28                       0                2.828427                       0                       0                       0
83                      28                       0                       0                       0                       0                       0
84                      30                       2                5.656854   -5.26873656616493e-10    7.45150352411401e-10    1.90694395240171e-10
85                      30                       2                2.828427                       0                       0                       0
86                      30                       2                       0                       0                       0                       0
87                       0                       4                5.656854    1.98154613657987e-11    3.16607846089534e-10    9.69010379838552e-11
88                       0                       4                2.828427                       0                       0                       0
89                       0                       4                       0                       0                       0                       0
90                       2                       6                5.656854    1.04384782435401e-07     9.5371258438339e-08    3.55138559479373e-08
91                       2                       6                2.828427    3.90181669402716e-09    3.52441530618363e-09    2.55749443415673e-09
92                       2                       6                       0    1.17143897670381e-09    1.09027001219945e-09    1.21257606577207e-09
93                       4                       4                5.656854    1.17805592919034e-08    1.60540979816638e-08    4.88029973028279e-09
94                       4                       4                2.828427    1.42314368563451e-08     1.9616591603048e-08    1.15804125290811e-08
95                       4                       4                       0    1.59969117021903e-10    2.22276568138911e-10    2.01949235047879e-10
96                       6                       6                5.656854    3.47838455661559e-06     5.1355862250493e-06    1.95776798294137e-06
97                       6                       6                2.828427    9.59306246347572e-08    1.39429715113158e-07    1.02999189151824e-07
98                       6                       6                       0    3.72433616991168e-08    5.31651059315538e-08    5.83594267287276e-08
99                       8                       4                5.656854    1.36588812897433e-07    3.20073696414699e-07    9.99121363308578e-08
100                       8                       4                2.828427    1.39109267925111e-07    3.23030967063381e-07    1.95708051392232e-07
101                       8                       4                       0    1.89129770482772e-09    4.43202531984177e-09    3.98743463609705e-09
102                      10                       6                5.656854    2.29617615618645e-05    6.82593842170435e-05    2.73794280959887e-05
103                      10                       6                2.828427    4.77743343956339e-07     1.3928565975555e-06    1.07346367808685e-06
104                      10                       6                       0    1.44339159614487e-07    4.10754294144512e-07    4.63402441613579e-07
105                      12                       4                5.656854    2.72252357064405e-07    1.65178937068081e-06    5.31583956857197e-07
106                      12                       4                2.828427     2.4651977969001e-07    1.44833490094125e-06    9.01139309900222e-07
107                      12                       4                       0    3.06656582685359e-09    1.75368790197692e-08    1.61170209294789e-08
108                      14                       6                5.656854    1.19960185816895e-05    0.000192359628320027    7.96125775704159e-05
109                      14                       6                2.828427    2.48758364185778e-07    3.48539232145092e-06    2.76334058544803e-06
110                      14                       6                       0    7.52793088213181e-08    9.24015273462585e-07    1.06763767902967e-06
111                      16                       4                5.656854    -1.4429010081906e-08    2.43077330225542e-06    7.90273946471859e-07
112                      16                       4                2.828427   -1.29236563773963e-08    2.08897557076409e-06    1.31117731783387e-06
113                      16                       4                       0   -1.49908473305412e-10    2.47996723004274e-08    2.29643581100866e-08
114                      18                       6                5.656854   -1.39296703089764e-05    0.000185667558397351    7.68161914629554e-05
115                      18                       6                2.828427   -2.83784059418772e-07     3.3815824827788e-06    2.67446029886797e-06
116                      18                       6                       0    -8.4121809446167e-08    9.02679885608458e-07    1.03999651788271e-06
117                      20                       4                5.656854   -2.69104671761346e-07    1.55369957659485e-06    5.00570844289054e-07
118                      20                       4                2.828427   -2.44980679517668e-07    1.36987418715252e-06    8.50078037054595e-07
119                      20                       4                       0   -3.07011267696833e-09    1.67347377337012e-08    1.53253870703839e-08
120                      22                       6                5.656854   -2.14247154833177e-05    6.29203678291965e-05    2.52112852667761e-05
121                      22                       6                2.828427   -4.51259446011015e-07    1.29847392336742e-06    9.94491477169474e-07
122                      22                       6                       0   -1.38316342703553e-07    3.88747865071427e-07     4.3539554876235e-07
123                      24                       4                5.656854   -1.26054429338849e-07    2.93897399235002e-07    9.19128237271462e-08
124                      24                       4                2.828427   -1.28885541122669e-07    2.97707269797434e-07    1.79725342341962e-07
125                      24                       4                       0   -1.75433615225252e-09    4.03505791761874e-09    3.62627779039604e-09
126                      26                       6                5.656854   -3.18626602642775e-06    4.70786865956816e-06    1.79509396637561e-06
127                      26                       6                2.828427   -8.84146475575247e-08     1.2863577088549e-07    9.44576870068388e-08
128                      26                       6                       0   -3.41900984740687e-08    4.88304571624791e-08    5.33678713539494e-08
129                      28                       4                5.656854   -1.07840862001078e-08    1.47095947769942e-08    4.48466231315444e-09
130                      28                       4                2.828427   -1.30499426673413e-08    1.80057988020867e-08    1.05964228056774e-08
131                      28                       4                       0   -1.39040478011097e-10     1.9386448779072e-10    1.76064396441105e-10
132                      30                       6                5.656854    -9.5916606954969e-08    8.82051879930314e-08    3.28681965058439e-08
133                      30                       6                2.828427    -3.5901920160453e-09     3.2553664815586e-09    2.35136725820179e-09
134                      30                       6                       0   -1.02415561276204e-09    9.58449250235062e-10     1.0636435493148e-09
135                       0                       8                5.656854    7.78224983515293e-10    1.29955528039983e-08    6.20784983280804e-09
136                       0                       8                2.828427    9.55310712489021e-10    1.47745629215047e-08    1.38823241558216e-08
137                       0                       8                       0    1.69250812432386e-11    1.54418253827884e-10    2.30850269337111e-10
138                       2                      10                5.656854     3.3598346124047e-06    1.68450776169111e-06    1.16085425290885e-06
139                       2                      10                2.828427     9.4682790692215e-08    4.79741146985956e-08    6.32775893862352e-08
140                       2                      10                       0    3.79594148813056e-08    1.93162936133144e-08    3.72639561909422e-08
141                       4                       8                5.656854    1.07900388917663e-06    9.54103753840906e-07    4.69762359010139e-07
142                       4                       8                2.828427    8.96750166823682e-07    7.88466048339625e-07    7.48452043320735e-07
143                       4                       8                       0    1.03917533718111e-08    9.07464347114194e-09    1.26784407014018e-08
144                       6                      10                5.656854    0.000293908327809685    0.000249143407153898    0.000181718338830449
145                       6                      10                2.828427    4.15352685177928e-06    3.48253741844376e-06    4.80750132109001e-06
146                       6                      10                       0    9.07713302330616e-07    7.52154124702522e-07    1.49250535728994e-06
147                       8                       8                5.656854    2.46732479520991e-05    4.13648125267459e-05    2.13557922004931e-05
148                       8                       8                2.828427    1.28225480069217e-05     2.0698459063457e-05    2.04969580974367e-05
149                       8                       8                       0    9.66170416435773e-08    1.50570287544599e-07    2.17212784225227e-07
150                      10                      10                5.656854     0.00300671326242626     0.00593573912222538     0.00474609990787154
151                      10                      10                2.828427    2.54975107135125e-05    4.80142323770373e-05    7.13908906803347e-05
152                      10                      10                       0    3.66323706261764e-06    6.49028808265336e-06    1.36410341492602e-05
153                      12                       8                5.656854    6.58400983873394e-05    0.000306624966832619    0.000171966310632648
154                      12                       8                2.828427    2.50125894867518e-05    0.000110054658253164     0.00011605960030105
155                      12                       8                       0    1.49941491439386e-07    6.17623171317686e-07    9.33854157993853e-07
156                      14                      10                5.656854    0.000965162041732705      0.0155366196125157      0.0136185734216401
157                      14                      10                2.828427    9.42622184402728e-06     0.00011560185428762    0.000185897253350295
158                      14                      10                       0    1.53062742040785e-06    1.37322808544829e-05    3.05282586828455e-05
159                      16                       8                5.656854   -3.05221571839858e-06    0.000440820420560893    0.000252778123937437
160                      16                       8                2.828427   -1.14471914972195e-06    0.000154010525583277    0.000165670323752795
161                      16                       8                       0   -5.94599710012376e-09    8.46306112632492e-07    1.30145032216919e-06
162                      18                      10                5.656854     -0.0011572329830163      0.0152712499491057      0.0133193285953881
163                      18                      10                2.828427   -1.08123338790182e-05    0.000113477926980679    0.000181162525407787
164                      18                      10                       0   -1.66925835885493e-06    1.35700608937462e-05    2.99834334403983e-05
165                      20                       8                5.656854   -6.42094160442051e-05    0.000286589989553824    0.000159877719263073
166                      20                       8                2.828427   -2.47172680644234e-05    0.000104814368380443    0.000109578473589854
167                      20                       8                       0   -1.49425846690102e-07    5.97324927027538e-07    8.95744552098838e-07
168                      22                      10                5.656854    -0.00284259811124717     0.00563142223707777     0.00443925455889407
169                      22                      10                2.828427   -2.44822867850488e-05    4.61022858394235e-05    6.73350906971851e-05
170                      22                      10                       0     -3.571356967833e-06    6.33269026614318e-06    1.31075055130806e-05
171                      24                       8                5.656854   -2.26758694461143e-05    3.79917915547977e-05    1.95306214550468e-05
172                      24                       8                2.828427   -1.19688606565066e-05    1.93202938003238e-05    1.89330472368929e-05
173                      24                       8                       0   -9.17521527938123e-08    1.43090867899569e-07    2.04104843843473e-07
174                      26                      10                5.656854   -0.000271116027035017    0.000231941890376802      0.0001674901013519
175                      26                      10                2.828427   -3.89353495530279e-06    3.29543635131836e-06    4.47667845315678e-06
176                      26                      10                       0   -8.66127446766332e-07    7.24427615838437e-07    1.41399481360128e-06
177                      28                       8                5.656854   -9.92602669946887e-07    8.83100212750899e-07    4.33512645962728e-07
178                      28                       8                2.828427   -8.29634903629706e-07      7.340119454355e-07    6.90646838031316e-07
179                      28                       8                       0   -9.73643124740625e-09    8.55721740299688e-09    1.18250864026628e-08
180                      30                      10                5.656854   -3.14241391895879e-06    1.59845563715535e-06    1.09121560499529e-06
181                      30                      10                2.828427   -8.88866841168431e-08    4.57302024439838e-08    5.94175173179675e-08
182                      30                      10                       0   -3.60133187905219e-08    1.85787387783888e-08    3.52490683973867e-08
183                       0                      12                5.656854    4.96759396103777e-09    6.09686485720908e-08    6.50911283598807e-08
184                       0                      12                2.828427    5.25669842822367e-09    6.80366751280592e-08    1.37841813491094e-07
185                       0                      12                       0   -8.92975937581058e-11    9.39630721107875e-10    2.79750829662781e-09
186                       2                      14                5.656854    1.89774948282666e-05    2.58060861707058e-06    6.57929652416483e-06
187                       2                      14                2.828427    4.57903501501594e-07    6.61254970076897e-08    3.07127987814725e-07
188                       2                      14                       0    1.58563052234138e-07    2.41141421341837e-08    1.55248853814254e-07
189                       4                      12                5.656854    2.41187348812962e-05    8.95975152254857e-06     1.0770174839607e-05
190                       4                      12                2.828427    1.32127512323058e-05    5.10008187858388e-06    1.12786830100548e-05
191                       4                      12                       0    1.04072787456537e-07    4.15203821820502e-08    1.29077012467239e-07
192                       6                      14                5.656854     0.00314988356188608    0.000612572492040619     0.00198909650081273
193                       6                      14                2.828427    2.93330033538794e-05      6.502057723791e-06    3.47602367939035e-05
194                       6                      14                       0    4.48518972385654e-06     1.0869237131709e-06    7.54743552010231e-06
195                       8                      12                5.656854     0.00134416451520173     0.00103604536048769     0.00138068359314274
196                       8                      12                2.828427    0.000292152549194862    0.000221505208219206    0.000530617019346084
197                       8                      12                       0    1.15289939754997e-06    8.58787936011352e-07    2.82481116823673e-06
198                      10                      14                5.656854     -0.0166921747880131     -0.0043259713573085      -0.137528411887739
199                      10                      14                2.828427    0.000183708562974018    0.000105037735498902    0.000635296461444597
200                      10                      14                       0    1.74117920565529e-05    9.74719332924685e-06    7.37128883515436e-05
201                      12                      12                5.656854     0.00175678898372712     0.00537224477893375      0.0074925266108015