ITEM: TIMESTEP
0
ITEM: NUMBER OF ATOMS
422
ITEM: BOX BOUNDS pp pp pp
0.0000000000000000e+00 3.2000000000000000e+01
0.0000000000000000e+00 3.2000000000000000e+01
0.0000000000000000e+00 3.2000000000000000e+01
ITEM: ATOMS id xu yu zu fx fy fz
1        14.9459321938386        15.9835208156773                 8.65685     0.00582048098357075    0.000492611448134897     0.00608885319838346
2        20.6274848400711        15.9892262416344                 8.65685    -0.00391323598488609    0.000167156510565712   -0.000711636226484851
3         19.202344993917         15.987795112765                 8.65685     0.00486924478226236    0.000253704536128647     0.00163716393561988
4         16.371072038949        15.9849519429358                 8.65685    -0.00230462676831356    0.000143120001696699    -0.00315100763825572
5        18.5010751677692        14.7497248501637                 8.65685      0.0232396080050334      0.0347815412823219       0.116076301831093
6        17.0748269908674        14.7482926087119                 8.65685     -0.0293126600533939      0.0237586774954096      0.0748684843043209
7        17.0723418650276        17.2230222053877                 8.65685      -0.028507704627181     -0.0239255783071649      0.0722166428441667
8        18.4985900414216        17.2244544465825                 8.65685      0.0225936308207945     -0.0351489792650121       0.113056588286025
9        16.3177569207574        13.5484462411751                 8.65685     -0.0145232016054472    -0.00590249201857967      0.0231136839990101
10        19.2605534827313        13.5514014038861                 8.65685       0.030728167141977     -0.0113522270662828      0.0568313097326015
11        16.3128635507729         18.421345651893                 8.65685     -0.0145449756538819     0.00556985640698802      0.0234572413732094
12        19.2556601106552        18.4243008141789                 8.65685      0.0312851731368036      0.0109643762041059      0.0583041692061244
13        14.9273112602358        13.5624445878976                 8.65685      0.0369471268088319     -0.0174724328280422      0.0978393283787027
14        14.9224488081137        18.4045547622743                 8.65685      0.0376164870227119      0.0165308257869398       0.100476330399971
15         20.650968226168        13.5681922935721                 8.65685     -0.0281531028732398     -0.0096150262638376      0.0483829202981917
16        20.6461057714963        18.4103024705805                 8.65685     -0.0283031830481562      0.0091722999518009      0.0486069249779662
17         14.226795838139        17.1943199436399                 8.65685      0.0112813078245067     -0.0401001928943423       0.125769185797003
18        14.2292290587396        14.7712798150634                 8.65685      0.0117897225246715       0.039705350112326       0.130593211471936
19        21.3466211966922        14.7784271122721                 8.65685     -0.0264014096355576      0.0314471906641809      0.0991260418289892
20        21.3441879750283        17.2014672429596                 8.65685     -0.0259244817891964     -0.0315548623771706      0.0966539396395567
21        22.7551350226241        14.8244350858224                 8.65685      0.0266135526884407      0.0290429154647695      0.0846255491616614
22        22.7527913622507        17.1582882295758                 8.65685      0.0261129503724237     -0.0291787721638364      0.0830705470852425
23        12.8206256731611        14.8144588294926                 8.65685     -0.0246217475631351      0.0173174659070428      0.0459876180039811
24        12.8182820131454        17.1483119722736                 8.65685      -0.023630647340978      -0.017339108179888      0.0435668174900985
25        23.3867264607395        15.9919970781177                 8.65685     0.00121000070587178    4.44561487318506e-05    -0.00871077860461461
26        12.1866905744716        15.9807499786644                 8.65685   -0.000339598258317165    4.14674778056766e-05     -0.0099220198935339
27         23.409196045824        18.1859221409264                 8.65685        0.01164699593141     0.00161890715367588      0.0116045558064376
28        23.4136022867001        13.7981215696947                 8.65685      0.0115262235124653    -0.00173724626515906       0.011320938138806
29        12.1598147507275        18.1746254872963                 8.65685    -0.00333859105026653    0.000781096826135333   -0.000144811333315734
30        12.1642209902605        13.7868249167297                 8.65685    -0.00339696365835575   -0.000946930845513089   -0.000217627171189969
31        14.3998668222426        12.6154548000933                 8.65685    0.000723827832812173    -0.00284686031239752    -0.00489423281998519
32        14.3931035005993        19.3504833212092                 8.65685    0.000773124833184225     0.00299613634657281    -0.00445722689725485
33        21.1803135329519        12.6222637346313                 8.65685     -0.0010046968304407    -0.00193179251579997    -0.00669571631384427
34        21.1735502071424         19.357292260389                 8.65685     -0.0010571864379334     0.00197053039990721    -0.00655868276416259
35        16.7622865728669        12.5689605638796                 8.65685   -0.000633661153293089   -0.000819547217469517    -0.00883877385885703
36         16.755425108682        19.4017221461408                 8.65685   -0.000689034743952147    0.000847081671929365    -0.00874427460127032
37        18.8179919240215        12.5710249097393                 8.65685    0.000878107543720539    -0.00178997929336891    -0.00709728011254177
38         18.811130457531        19.4037864905846                 8.65685     0.00093988829059113     0.00187946798325821    -0.00686736667582493
39                       0                       0                5.656854                       0                       0                       0
40                       0                       0                2.828427                       0                       0                       0
41                       0                       0                       0                       0                       0                       0
42                       2                       2                5.656854                       0                       0                       0
43                       2                       2                2.828427                       0                       0                       0
44                       2                       2                       0                       0                       0                       0
45                       4                       0                5.656854                       0                       0                       0
46                       4                       0                2.828427                       0                       0                       0
47                       4                       0                       0                       0                       0                       0
48                       6                       2                5.656854       5.13552854613e-09    8.50331310379082e-09    2.18594352717095e-09
49                       6                       2                2.828427    1.60009299861417e-10    2.70254371224538e-10    1.37434439993859e-10
50                       6                       2                       0                       0                       0                       0
51                       8                       0                5.656854    2.29567717580631e-10    1.37519791379899e-11    1.33496959231884e-10
52                       8                       0                2.828427                       0                       0                       0
53                       8                       0                       0                       0                       0                       0
54                      10                       2                5.656854    4.76203069525607e-08     1.3266474278138e-07    3.47334415793268e-08
55                      10                       2                2.828427    1.84275358057409e-09    5.10201937401719e-09    2.59479261303681e-09
56                      10                       2                       0    4.22275687545959e-10     1.4393639792045e-09    1.11260407776047e-09
57                      12                       0                5.656854    1.27108927387374e-09    1.28442032642935e-10    1.30821514280842e-09
58                      12                       0                2.828427     8.7895657233942e-10    7.32032706551048e-10    1.91609420739354e-09
59                      12                       0                       0                       0                       0                       0
60                      14                       2                5.656854    7.97502801090151e-08    5.64338800080187e-07    1.50841206953117e-07
61                      14                       2                2.828427    2.91754312484344e-09    2.00075170994623e-08    1.03532235063717e-08
62                      14                       2                       0    1.07247556397588e-09      8.496634326151e-09    6.62308413247914e-09
63                      16                       0                5.656854    7.81483970453858e-10    2.82261474630234e-10    3.11453210801863e-09
64                      16                       0                2.828427    5.35024018033625e-10    3.11670047170911e-10    7.01499578566104e-09
65                      16                       0                       0                       0                       0                       0
66                      18                       2                5.656854   -5.80067357954979e-09    8.06127268003566e-07    2.16841298364458e-07
67                      18                       2                2.828427   -1.41658559510499e-10    2.80303195146082e-08     1.4597754976071e-08
68                      18                       2                       0   -1.25980060907302e-10    1.27957474412381e-08    1.00036265013533e-08
69                      20                       0                5.656854   -9.58029392620582e-10    2.34218866586283e-10    2.98831817804672e-09
70                      20                       0                2.828427   -7.13109154473452e-10     5.5542492332509e-10    6.68654249425671e-09
71                      20                       0                       0                       0                       0                       0
72                      22                       2                5.656854   -8.34564487138517e-08    5.10823021345154e-07    1.36283079158636e-07
73                      22                       2                2.828427   -3.05826258053305e-09    1.82163716703345e-08     9.4092528784683e-09
74                      22                       2                       0   -1.21214977429852e-09    7.87227184177967e-09    6.12602380337656e-09
75                      24                       0                5.656854   -1.21472209058468e-09    7.86328290106694e-11    1.12862628331516e-09
76                      24                       0                2.828427   -8.65528360896472e-10    6.86316416530345e-10    1.67478312789289e-09
77                      24                       0                       0                       0                       0                       0
78                      26                       2                5.656854    -4.0099474173062e-08    1.04487337024752e-07    2.72861739599626e-08
79                      26                       2                2.828427   -1.56870924763073e-09    4.08168412456825e-09    2.06805803847544e-09
80                      26                       2                       0   -3.96790870105537e-10     1.2208928333217e-09    9.40557585204494e-10
81                      28                       0                5.656854   -1.92751444082727e-10    6.24234614198045e-12    1.04613454311486e-10
82                      28                       0                2.828427                       0                       0                       0
83                      28                       0                       0                       0                       0                       0
84                      30                       2                5.656854   -2.70568993711412e-09    4.34598975626419e-09    1.13400703041622e-09
85                      30                       2                2.828427   -1.22008436730725e-10    1.95547955220969e-10    9.91847166266855e-11
86                      30                       2                       0                       0                       0                       0
87                       0                       4                5.656854   -1.33268666984193e-09    1.46767254716902e-09     4.4640471012384e-10
88                       0                       4                2.828427   -1.22657968704554e-09    1.39967624257316e-09    8.32598896302647e-10
89                       0                       4                       0                       0                       0                       0
90                       2                       6                5.656854    4.94796078773587e-09    1.58894528960253e-08    5.88894837360065e-09
91                       2                       6                2.828427    1.28467751878655e-10    4.35741378723182e-10    3.25972266068804e-10
92                       2                       6                       0                       0                       0                       0
93                       4                       4                5.656854    2.26431517894031e-09    2.57931846447484e-09    7.80803953912984e-10
94                       4                       4                2.828427    2.15314899064699e-09     2.4312358669433e-09    1.47503355845743e-09
95                       4                       4                       0                       0                       0                       0
96                       6                       6                5.656854    8.16048714655898e-07    9.49893364910357e-07    3.56998587718829e-07
97                       6                       6                2.828427    2.59019865419221e-08    2.99527846546957e-08     2.1774420144404e-08
98                       6                       6                       0    1.13689555657054e-08    1.31635863452001e-08    1.42121169351724e-08
99                       8                       4                5.656854    5.16309547705597e-08    9.30438900930666e-08    2.86687736960816e-08
100                       8                       4                2.828427    5.64974865884193e-08    1.00918940284799e-07    6.04637133134885e-08
101                       8                       4                       0    7.19810151792218e-10      1.329235521215e-09    1.18954681983881e-09
102                      10                       6                5.656854    1.16184156828035e-05     2.4344448725858e-05    9.53204042188872e-06
103                      10                       6                2.828427    2.72150166866959e-07    5.59671085621371e-07    4.21106986193665e-07
104                      10                       6                       0     9.2384713205602e-08    1.85930437590182e-07    2.05270878976788e-07
105                      12                       4                5.656854    2.46366949849306e-07    8.85818139482286e-07    2.83072915052387e-07
106                      12                       4                2.828427    2.29471972432975e-07    8.15069836305521e-07    5.01679296112292e-07
107                      12                       4                       0    2.85307311147542e-09    1.01768758305647e-08    9.27472464430417e-09
108                      14                       6                5.656854    2.36742472628265e-05    0.000137962729665154    5.67953387140014e-05
109                      14                       6                2.828427    4.60653859116964e-07    2.55831477560501e-06    2.00776245909893e-06
110                      14                       6                       0    1.32641926910382e-07    6.97598877154481e-07    7.96744189305545e-07
111                      16                       4                5.656854    1.27867407348899e-07    2.18929152498975e-06    7.13838687612201e-07
112                      16                       4                2.828427    1.18618175562182e-07    1.87707380574029e-06    1.17714862044585e-06
113                      16                       4                       0    1.42639799549351e-09    2.22040472448006e-08    2.05218023056547e-08
114                      18                       6                5.656854   -1.25464961840532e-06     0.00019641337924096    8.19424470745352e-05
115                      18                       6                2.828427   -2.71315156914229e-08    3.56241179156998e-06    2.83221870776805e-06
116                      18                       6                       0   -8.18482498305375e-09    9.49252117241339e-07    1.09724921071959e-06
117                      20                       4                5.656854   -1.61296084369965e-07    2.09641869484862e-06    6.82634960417115e-07
118                      20                       4                2.828427   -1.48314800663947e-07     1.8013225897506e-06     1.1281428681767e-06
119                      20                       4                       0   -1.82852137145193e-09    2.14051159485536e-08    1.97539417761818e-08
120                      22                       6                5.656854   -2.48747717087952e-05    0.000122907333427201    5.03955394221109e-05
121                      22                       6                2.828427   -4.85469188036642e-07     2.3117564322427e-06    1.80743239483864e-06
122                      22                       6                       0   -1.39728341041989e-07    6.37588508589198e-07    7.26060245270088e-07
123                      24                       4                5.656854   -2.26150873162954e-07    7.38023949866247e-07    2.34870475695337e-07
124                      24                       4                2.828427   -2.14182728364469e-07    6.91123307042614e-07    4.23786025765432e-07
125                      24                       4                       0   -2.62861764050471e-09    8.68585352769541e-09    7.88830764650252e-09
126                      26                       6                5.656854   -9.41101721631805e-06    1.83402055896234e-05    7.13396017908123e-06
127                      26                       6                2.828427    -2.2754071664951e-07    4.35303882596557e-07     3.2572319285487e-07
128                      26                       6                       0   -7.86462508276093e-08    1.48431494061828e-07    1.63138519750809e-07
129                      28                       4                5.656854   -3.93482147785927e-08    6.69521509722561e-08    2.05662037169433e-08
130                      28                       4                2.828427   -4.42015611534564e-08    7.46911370905749e-08    4.45708835449585e-08
131                      28                       4                       0   -5.91968211194653e-10    1.02437057595504e-09    9.13900049307974e-10
132                      30                       6                5.656854   -5.56212244269159e-07    6.15625128964079e-07    2.30513342632915e-07
133                      30                       6                2.828427    -1.8322959783084e-08    2.01177702518115e-08     1.4592928638758e-08
134                      30                       6                       0   -7.84384036771683e-09    8.67874192961495e-09    9.39770646412359e-09
135                       0                       8                5.656854   -9.17818926546954e-08    6.47135423555408e-08    3.11516228067172e-08
136                       0                       8                2.828427   -9.71866593652797e-08    6.86860110377907e-08    6.38115076434634e-08
137                       0                       8                       0   -1.28028329737257e-09    8.97077959662081e-10    1.24818809654468e-09
138                       2                      10                5.656854    1.39591616632111e-07    2.15555173020706e-07    1.43236226869032e-07
139                       2                      10                2.828427    4.59579569341481e-09    7.79122458149327e-09    9.96450494881492e-09
140                       2                      10                       0    1.79915325246255e-09    3.41216862651905e-09    6.64885406673186e-09
141                       4                       8                5.656854    1.51038641546047e-07    1.09469170822144e-07    5.29553550493389e-08
142                       4                       8                2.828427    1.56530791260426e-07    1.13157745834466e-07    1.05236536915303e-07
143                       4                       8                       0    1.86978863960135e-09    1.36983045302961e-09    1.91224307488331e-09
144                       6                      10                5.656854    4.46127309957567e-05    2.89165695594725e-05    2.03726911658831e-05
145                       6                      10                2.828427    8.87170076462172e-07    5.79139715643495e-07    7.72009113010207e-07
146                       6                      10                       0    2.58973432870478e-07    1.69905647175763e-07    3.27263289686917e-07
147                       8                       8                5.656854    7.26302701487492e-06    8.90034091046145e-06    4.46559686235235e-06
148                       8                       8                2.828427    4.61562596401685e-06    5.54687907416749e-06    5.33268818923524e-06
149                       8                       8                       0    4.16388268693784e-08    4.91505450287954e-08     6.9048197095665e-08
150                      10                      10                5.656854     0.00141330359902119     0.00189546483060995     0.00142310988456254
151                      10                      10                2.828427    1.43834000431455e-05    1.83754992066363e-05    2.58957520778689e-05
152                      10                      10                       0    2.40715034874836e-06    2.94772562686197e-06    5.93199450368518e-06
153                      12                       8                5.656854    5.54553620861607e-05    0.000146062352405003    7.91283897833639e-05
154                      12                       8                2.828427     2.3332074924554e-05    5.98347413975618e-05    6.10810390935876e-05
155                      12                       8                       0     1.5013841564112e-07    3.70564561691964e-07    5.44832432939085e-07
156                      14                      10                5.656854     0.00301280677063707      0.0120115621833412      0.0101856621836306
157                      14                      10                2.828427    2.33164732528927e-05     8.9551940261572e-05    0.000139198789054387
158                      14                      10                       0    3.10583300959785e-06    1.09693518027356e-05    2.36502439178811e-05
159                      16                       8                5.656854    2.13686598746399e-05    0.000407614420090992    0.000233075873009097
160                      16                       8                2.828427    9.60902330295865e-06    0.000141255152062734    0.000151025866189466
161                      16                       8                       0    6.53306498110934e-08    7.76010236077473e-07    1.18437672252244e-06
162                      18                      10                5.656854   -6.61455346998815e-05       0.015692703997328      0.0138273337350135
163                      18                      10                2.828427   -7.04217014127771e-07     0.00011536057815317      0.0001852946949773
164                      18                      10                       0   -1.52899752099068e-07    1.40623610944958e-05    3.11507991147928e-05
165                      20                       8                5.656854   -3.02701629199626e-05    0.000393482230767053    0.000224324268290004
166                      20                       8                2.828427   -1.27598926465488e-05    0.000136472270836125    0.000145508456497947
167                      20                       8                       0   -8.31234831285008e-08    7.50638372045198e-07    1.14277736893102e-06
168                      22                      10                5.656854    -0.00324234198416062      0.0108850692891296     0.00912976605809099
169                      22                      10                2.828427    -2.5211805612751e-05    8.15503716106785e-05    0.000125430467797434
170                      22                      10                       0   -3.36223216861963e-06    1.01430077983188e-05    2.17014617855436e-05
171                      24                       8                5.656854   -4.90294115043034e-05    0.000117199319545193    6.27729567711526e-05
172                      24                       8                2.828427   -2.15006158972655e-05    4.98943375176111e-05    5.05070646026542e-05
173                      24                       8                       0   -1.42444512165408e-07    3.18296287451079e-07    4.64991922490807e-07
174                      26                      10                5.656854     -0.0010991266768651      0.0013421629760257    0.000997252148907863
175                      26                      10                2.828427   -1.18033997183172e-05    1.38360808006371e-05    1.93223223795553e-05
176                      26                      10                       0   -2.06734400295283e-06    2.33827158601294e-06    4.67054832851003e-06
177                      28                       8                5.656854   -5.14657344384814e-06    5.89616475125557e-06    2.94042277487825e-06
178                      28                       8                2.828427   -3.44795418485266e-06    3.88782146463232e-06    3.71711415337175e-06
179                      28                       8                       0   -3.27446311336829e-08    3.63555258752138e-08    5.08176610712609e-08
180                      30                      10                5.656854   -2.74299472886643e-05    1.68605124185764e-05    1.17846850732411e-05
181                      30                      10                2.828427   -5.88394725872139e-07    3.64764666189865e-07    4.83016943860245e-07
182                      30                      10                       0    -1.8304562025025e-07    1.14418068134624e-07    2.19383600658783e-07
183                       0                      12                5.656854   -1.30139087902981e-06    4.02318879579895e-07    4.42459640665872e-07
184                       0                      12                2.828427   -1.10466686556533e-06    3.53624615175183e-07    7.28366710706505e-07
185                       0                      12                       0   -1.32082775533497e-08    4.28004268813649e-09    1.26167915451219e-08
186                       2                      14                5.656854    7.06001115636513e-07    3.02419722078973e-07    6.77469568151729e-07
187                       2                      14                2.828427    2.12277146276274e-08    1.02528800564043e-08     4.3025430335606e-08
188                       2                      14                       0    7.96698819437041e-09    4.75187104517299e-09    2.80445932766091e-08
189                       4                      12                5.656854    2.31133626527073e-06    7.33873167698134e-07    8.17842589246318e-07
190                       4                      12                2.828427    1.82892675811705e-06     5.9964587208257e-07    1.24808797068699e-06
191                       4                      12                       0    2.01062783838489e-08    6.77641074650482e-09     2.0120838371377e-08
192                       6                      14                5.656854    0.000362383311806926     6.1081107106289e-05    0.000166639168211977
193                       6                      14                2.828427    5.46412300236257e-06    1.01313535168267e-06    4.79936230556053e-06
194                       6                      14                       0    1.22578425392661e-06     2.4433400055286e-07    1.56422377743504e-06
195                       8                      12                5.656854    0.000298021886432408    0.000155717168897269    0.000196051366562279
196                       8                      12                2.828427    9.45048928324388e-05    5.12225773814918e-05    0.000115554149752298
197                       8                      12                       0    4.91796987513522e-07     2.7230395411387e-07    8.50694086289057e-07
198                      10                      14                5.656854      0.0113855687611917     0.00576611592729136      0.0107486906742984
199                      10                      14                2.828427    0.000120467773168111    4.34402844744407e-05    0.000235824960643898
200                      10                      14                       0    1.26777420800996e-05    4.81020061761729e-06    3.33510163830057e-05
201                      12                      12                5.656854     0.00274714312337057     0.00362907999114642      0.0049727473570148