ITEM: TIMESTEP
0
ITEM: NUMBER OF ATOMS
422
ITEM: BOX BOUNDS pp pp pp
0.0000000000000000e+00 3.2000000000000000e+01
0.0000000000000000e+00 3.2000000000000000e+01
0.0000000000000000e+00 3.2000000000000000e+01
ITEM: ATOMS id xu yu zu fx fy fz
1        14.1459321938386        15.9835208156773                 8.65685     0.00168929511511888    0.000857765363365082      0.0185301304901648
2        19.8274848400711        15.9892262416344                 8.65685     0.00105815569355855    7.37995935631232e-05    -0.00414677997544682
3         18.402344993917         15.987795112765                 8.65685     0.00421380715749597     0.00058209153418108      0.0159216422325226
4         15.571072038949        15.9849519429358                 8.65685     0.00267244583496811    0.000159940927973635    -0.00271653317744146
5        17.7010751677692        14.7497248501637                 8.65685     -0.0153382618086846      0.0385045557674874       0.130220510733112
6        16.2748269908674        14.7482926087119                 8.65685     -0.0100755059097946     0.00721263681973931      0.0145944908724738
7        16.2723418650276        17.2230222053877                 8.65685    -0.00971167257967838     -0.0072387872939027      0.0138214557122526
8        17.6985900414216        17.2244544465825                 8.65685      -0.015073296807948     -0.0388128082284731       0.126503522155134
9        15.5177569207574        13.5484462411751                 8.65685      0.0215088470932766    -0.00758142825534757      0.0332955048836654
10        18.4605534827313        13.5514014038861                 8.65685      0.0274755131337385     -0.0267610156113287       0.154002210845333
11        15.5128635507729         18.421345651893                 8.65685      0.0220673869498369     0.00725500653408691      0.0344296493269695
12        18.4556601106552        18.4243008141789                 8.65685      0.0276274098810493      0.0257227650975547        0.15680010661993
13        14.1273112602358        13.5624445878976                 8.65685     0.00863949521884476     -0.0297218525281369       0.177796788389022
14        14.1224488081137        18.4045547622743                 8.65685     0.00846337717384506       0.027985593033727       0.181422675638175
15         19.850968226168        13.5681922935721                 8.65685     0.00697584375216881    -0.00472312061752966      0.0172546358217783
16        19.8461057714963        18.4103024705805                 8.65685     0.00728375028585576     0.00456337601140348      0.0177077555396373
17         13.426795838139        17.1943199436399                 8.65685     -0.0239766766658659     -0.0336911449506014       0.103157788210645
18        13.4292290587396        14.7712798150634                 8.65685     -0.0247465421515614       0.033438670308034       0.107476762112556
19        20.5466211966922        14.7784271122721                 8.65685     -0.0186635004051806      0.0111301632018827      0.0270989216442341
20        20.5441879750283        17.2014672429596                 8.65685     -0.0182194813805821     -0.0111346378903061      0.0261863001554743
21        21.9551350226241        14.8244350858224                 8.65685     -0.0022577823812376      0.0415114104135919       0.127465069803294
22        21.9527913622507        17.1582882295758                 8.65685    -0.00233286930133306     -0.0416053037750897       0.124872230723458
23        12.0206256731611        14.8144588294926                 8.65685   -0.000716073203918686     0.00594579321590769     0.00862981672211971
24        12.0182820131454        17.1483119722736                 8.65685   -0.000609880615177437    -0.00593968768137065     0.00790030787260978
25        22.5867264607395        15.9919970781177                 8.65685     0.00189942899741586    0.000136622903285064     -0.0032713015912693
26        11.3866905744716        15.9807499786644                 8.65685     0.00121186344685295     0.00010694121763741    -0.00870758096338544
27         22.609196045824        18.1859221409264                 8.65685      0.0151178569775921     0.00459285295581227      0.0569988046688226
28        22.6136022867001        13.7981215696947                 8.65685       0.015113672227484    -0.00494990841277966      0.0564636969732326
29        11.3598147507275        18.1746254872963                 8.65685      0.0124916626627662     0.00165950012279681      0.0138274892781433
30        11.3642209902605        13.7868249167297                 8.65685      0.0123013666519046    -0.00199078689086219       0.013368853611758
31        13.5998668222426        12.6154548000933                 8.65685    -0.00072418856427416    -0.00284640678093262    -0.00489515953269256
32        13.5931035005993        19.3504833212092                 8.65685    -0.00079344639997204     0.00297155732567042    -0.00450838656361345
33        20.3803135329519        12.6222637346313                 8.65685   -0.000355873931130793   -0.000223133183885822    -0.00975203511254067
34        20.3735502071424         19.357292260389                 8.65685   -0.000374213460990504    0.000225950164150244    -0.00972851490768836
35        15.9622865728669        12.5689605638796                 8.65685    2.72867841567938e-05    2.44913467948173e-05     -0.0101688249694929
36         15.955425108682        19.4017221461408                 8.65685    3.64004227074307e-05   -1.72926968836299e-05     -0.0101429256770684
37        18.0179919240215        12.5710249097393                 8.65685    3.32728767589959e-05    -0.00299585172837511    -0.00472562967947805
38         18.011130457531        19.4037864905846                 8.65685     2.1844628523581e-05      0.0031151224519307    -0.00440778498199476
39                       0                       0                5.656854                       0                       0                       0
40                       0                       0                2.828427                       0                       0                       0
41                       0                       0                       0                       0                       0                       0
42                       2                       2                5.656854                       0                       0                       0
43                       2                       2                2.828427                       0                       0                       0
44                       2                       2                       0                       0                       0                       0
45                       4                       0                5.656854                       0                       0                       0
46                       4                       0                2.828427                       0                       0                       0
47                       4                       0                       0                       0                       0                       0
48                       6                       2                5.656854    8.82070225106886e-09    1.59048900063678e-08    4.11310965961454e-09
49                       6                       2                2.828427    2.50660196841702e-10    4.71129680070475e-10    2.40550231657213e-10
50                       6                       2                       0                       0                       0                       0
51                       8                       0                5.656854    3.02516569643511e-10    2.11535064008987e-11    2.02928708752295e-10
52                       8                       0                2.828427    1.41883453686052e-10    3.19636940247926e-10    1.47674366379313e-10
53                       8                       0                       0                       0                       0                       0
54                      10                       2                5.656854    6.16760286802513e-08    1.96829481525836e-07    5.17454032837751e-08
55                      10                       2                2.828427    2.25689905042614e-09     7.2596489715348e-09    3.71031459695065e-09
56                      10                       2                       0    6.01809471154708e-10    2.15225315281949e-09    1.68512992859929e-09
57                      12                       0                5.656854     1.2896310932438e-09    1.62986800008881e-10    1.66017597947272e-09
58                      12                       0                2.828427    1.20278910180804e-09    7.92086591857351e-10    3.38183719927112e-09
59                      12                       0                       0                       0                       0                       0
60                      14                       2                5.656854     6.8926840068298e-08    6.53536249462494e-07     1.7500665736443e-07
61                      14                       2                2.828427     2.4645454102666e-09    2.28864888785648e-08    1.18728343771864e-08
62                      14                       2                       0    6.97101558523325e-10     9.3542241707041e-09    7.30985846845564e-09
63                      16                       0                5.656854    4.16388819281113e-10    2.89682941464814e-10     3.2779883959501e-09
64                      16                       0                2.828427    3.47640520812272e-10    3.47293295946827e-10    8.10419375900532e-09
65                      16                       0                       0                       0                       0                       0
66                      18                       2                5.656854   -2.57088006453534e-08    7.88661774652625e-07    2.11875477506825e-07
67                      18                       2                2.828427   -8.98439953836802e-10    2.74881646711866e-08    1.43045984286488e-08
68                      18                       2                       0   -5.71826487456997e-10    1.24657661301022e-08    9.74483597493301e-09
69                      20                       0                5.656854   -1.09554894326215e-09     1.9802011244891e-10    2.61732313939562e-09
70                      20                       0                2.828427   -1.18128349154206e-09    2.18737266405215e-10    6.08694730044639e-09
71                      20                       0                       0                       0                       0                       0
72                      22                       2                5.656854   -8.47908424189888e-08    4.12916952452788e-07    1.09625988594059e-07
73                      22                       2                2.828427   -2.98016689531987e-09    1.46325991780163e-08    7.54325147662746e-09
74                      22                       2                       0   -1.36341656201108e-09     6.6268040602155e-09    5.14340520168268e-09
75                      24                       0                5.656854   -1.00128501492717e-09    5.49042077713339e-11       8.06121697175e-10
76                      24                       0                2.828427   -4.75173345518074e-10    2.42310569198652e-11    7.64421494375253e-10
77                      24                       0                       0                       0                       0                       0
78                      26                       2                5.656854   -2.87928591625724e-08    6.63619675745501e-08    1.72314700575076e-08
79                      26                       2                2.828427   -1.09801355488283e-09    2.51128404614429e-09    1.27420570359407e-09
80                      26                       2                       0   -1.86434257981194e-10    3.52395790950018e-10    2.87192784805352e-10
81                      28                       0                5.656854                       0                       0                       0
82                      28                       0                2.828427                       0                       0                       0
83                      28                       0                       0                       0                       0                       0
84                      30                       2                5.656854   -1.52764686217241e-09    2.23491557248521e-09    5.81221520266269e-10
85                      30                       2                2.828427                       0                       0                       0
86                      30                       2                       0                       0                       0                       0
87                       0                       4                5.656854   -4.98751045629659e-10    4.98991827740266e-10     1.5500278141175e-10
88                       0                       4                2.828427   -6.16638074470328e-10    6.43686215170896e-10     3.8289742728737e-10
89                       0                       4                       0                       0                       0                       0
90                       2                       6                5.656854     3.1979866385189e-08    2.94239642278285e-08    1.09635974664649e-08
91                       2                       6                2.828427    1.16260645389547e-09    1.11817588962184e-09    8.07494419503286e-10
92                       2                       6                       0    4.67931354831352e-10    3.89108665516288e-10    4.32583933386978e-10
93                       4                       4                5.656854    4.78497967001428e-09    5.91458070398935e-09    1.79025165198046e-09
94                       4                       4                2.828427    5.14829844491932e-09     6.4776842815806e-09    3.84204332395589e-09
95                       4                       4                       0    5.94254350286568e-11    7.89745893007741e-11    6.98562791513445e-11
96                       6                       6                5.656854    1.57798595489009e-06     2.0345283896153e-06    7.69279149075496e-07
97                       6                       6                2.828427    4.71301130374118e-08    6.01915080986279e-08    4.39475388781363e-08
98                       6                       6                       0    1.99366954396264e-08     2.5003035690393e-08    2.72097335913486e-08
99                       8                       4                5.656854    8.07414557641653e-08    1.62696749856588e-07    5.04602920938736e-08
100                       8                       4                2.828427    8.58631042525248e-08    1.71915117950428e-07    1.03213711633023e-07
101                       8                       4                       0    1.25638131776077e-09    2.47168786382351e-09    2.21372911624878e-09
102                      10                       6                5.656854    1.60860939555181e-05     3.8962214537697e-05    1.54345419133706e-05
103                      10                       6                2.828427    3.56569425859888e-07    8.48317454634991e-07    6.44293118965145e-07
104                      10                       6                       0     1.1412367071256e-07     2.6643392612441e-07    2.96418500233497e-07
105                      12                       4                5.656854    2.67978283944534e-07    1.18036608709684e-06    3.79450341049442e-07
106                      12                       4                2.828427    2.44612497131061e-07    1.05803828123429e-06    6.54740643334445e-07
107                      12                       4                       0    3.03918757928203e-09    1.31123023779759e-08     1.1966045720586e-08
108                      14                       6                5.656854    1.93062204544367e-05    0.000161653931525189    6.68889931156605e-05
109                      14                       6                2.828427    3.80750578081264e-07    2.94974398745954e-06    2.32661454740597e-06
110                      14                       6                       0     1.1108785183407e-07    7.92578005858799e-07    9.09367757180383e-07
111                      16                       4                5.656854     6.8364863085998e-08    2.29679555164231e-06    7.49933439924209e-07
112                      16                       4                2.828427    6.43672922951566e-08    1.96726359921407e-06    1.23542440205723e-06
113                      16                       4                       0    7.78490214211857e-10    2.33976325287293e-08    2.16291409141559e-08
114                      18                       6                5.656854   -5.69670489396149e-06    0.000193026568181786      8.043999581601e-05
115                      18                       6                2.828427    -1.2295671935488e-07    3.49809637307642e-06    2.77838560127136e-06
116                      18                       6                       0   -3.85227431729761e-08    9.32132311731324e-07    1.07638859739434e-06
117                      20                       4                5.656854   -2.15176944327086e-07     1.8840539026722e-06    6.11841186201715e-07
118                      20                       4                2.828427   -1.95743482744972e-07    1.62878152702297e-06    1.01731813405463e-06
119                      20                       4                       0   -2.40799251846859e-09    1.94416749739143e-08     1.7902571129188e-08
120                      22                       6                5.656854   -2.49099595385394e-05    9.51973396676044e-05    3.87205463418184e-05
121                      22                       6                2.828427   -4.95550827789692e-07    1.85012707708748e-06    1.43609480293124e-06
122                      22                       6                       0   -1.44571038866246e-07    5.25349128738226e-07    5.94413250459807e-07
123                      24                       4                5.656854   -1.82893214968799e-07    5.08723818318535e-07    1.60700046100838e-07
124                      24                       4                2.828427   -1.79287957814907e-07    4.93202333940351e-07    3.00431618934554e-07
125                      24                       4                       0   -2.27495175438097e-09    6.37727878673119e-09    5.76815274825396e-09
126                      26                       6                5.656854   -6.09179253877647e-06    1.04429689624866e-05    4.02125062182472e-06
127                      26                       6                2.828427   -1.56074600673945e-07    2.63033904423866e-07    1.95189333269959e-07
128                      26                       6                       0   -5.71206511001181e-08    9.46882918923673e-08     1.0366042098279e-07
129                      28                       4                5.656854   -2.30066399749428e-08    3.54178140177745e-08     1.0817134084634e-08
130                      28                       4                2.828427   -2.73079420590839e-08    4.16163047245676e-08    2.47019573550008e-08
131                      28                       4                       0   -2.51935768249181e-10    3.99853072590648e-10    3.64867025623739e-10
132                      30                       6                5.656854   -2.64732645714778e-07    2.67433730352074e-07    9.96299553946453e-08
133                      30                       6                2.828427   -9.27867394319069e-09    9.30825892135155e-09    6.73061610780585e-09
134                      30                       6                       0   -3.65915035045918e-09    3.72170956202136e-09    4.06539088212375e-09
135                       0                       8                5.656854   -3.35120226842348e-08    2.48604959475441e-08    1.18941454675063e-08
136                       0                       8                2.828427   -3.82629124844894e-08    2.83937349923564e-08    2.64348306850171e-08
137                       0                       8                       0   -5.08977859923205e-10    3.24234434671159e-10    4.59781929357831e-10
138                       2                      10                5.656854     8.5645787524901e-07    4.45753651455952e-07    2.99959704679984e-07
139                       2                      10                2.828427    2.75853055112366e-08    1.46424262831376e-08    1.88425683018043e-08
140                       2                      10                       0    1.09196892778192e-08    5.51862027016712e-09    1.10108716740287e-08
141                       4                       8                5.656854    3.65831245890205e-07    2.88336273609386e-07    1.40325200240339e-07
142                       4                       8                2.828427    3.43513176795525e-07     2.7059233452162e-07     2.5319902250015e-07
143                       4                       8                       0    4.38516717177261e-09    3.45532269763639e-09    4.78053507489613e-09
144                       6                      10                5.656854    0.000105660005714844    7.67062374069618e-05    5.46829058832526e-05
145                       6                      10                2.828427    1.81433490011275e-06    1.32032007975201e-06     1.7770942780985e-06
146                       6                      10                       0    4.65458845492818e-07    3.39342149304914e-07    6.57449378858825e-07
147                       8                       8                5.656854    1.28571732151523e-05    1.80560414248073e-05    9.15291458608832e-06
148                       8                       8                2.828427    7.45445825059206e-06    1.01886680506558e-05    9.88538968431367e-06
149                       8                       8                       0    6.20732058937291e-08    8.26876784172632e-08    1.17004071822233e-07
150                      10                      10                5.656854     0.00205263347101809      0.0032962285599948     0.00252619004957116
151                      10                      10                2.828427    1.92091791275212e-05    2.91712220920655e-05    4.17891965091145e-05
152                      10                      10                       0    2.99406362790305e-06    4.31145560904325e-06    8.78676608946073e-06
153                      12                       8                5.656854    6.36095005233726e-05    0.000206882443389187    0.000114147190338946
154                      12                       8                2.828427    2.51070316629307e-05    7.95194616061769e-05    8.22854401962803e-05
155                      12                       8                       0    1.55020617226906e-07    4.70395503396985e-07    6.98688423252962e-07
156                      14                      10                5.656854     0.00227202525585248       0.013758409480169      0.0118766492588165
157                      14                      10                2.828427     1.7755075096954e-05    0.000101641034378665    0.000160271503595085
158                      14                      10                       0    2.45656954376318e-06    1.22438277652749e-05    2.66862808699121e-05
159                      16                       8                5.656854    8.81348569771377e-06    0.000419955493479258    0.000240983536596789
160                      16                       8                2.828427    4.63735220432288e-06    0.000146259534136567    0.000156836160188269
161                      16                       8                       0    3.44440133309094e-08    8.05737049348842e-07    1.23296432680437e-06
162                      18                      10                5.656854   -0.000285747860061414      0.0155082003848496      0.0136284771008951
163                      18                      10                2.828427   -3.59740129032271e-06    0.000114562473234937    0.000183672387596058
164                      18                      10                       0   -7.19650440440618e-07    1.38892671055157e-05     3.0713146566271e-05
165                      20                       8                5.656854   -4.71441392095848e-05    0.000355731495515413    0.000201632894219075
166                      20                       8                2.828427   -1.84512925282373e-05    0.000124450310030477    0.000131903147991193
167                      20                       8                       0   -1.13948096142301e-07     6.8958535075677e-07    1.04417248244159e-06
168                      22                      10                5.656854    -0.00333374022571509     0.00858446573668976     0.00704307497705636
169                      22                      10                2.828427   -2.64257822834634e-05    6.57084319315081e-05    9.89939935063621e-05
170                      22                      10                       0   -3.61727499096775e-06    8.47085138323721e-06    1.78704166615877e-05
171                      24                       8                5.656854   -3.67370717859202e-05    7.45731782847469e-05    3.91720662443729e-05
172                      24                       8                2.828427   -1.74230260454725e-05    3.41491254335729e-05    3.40834600058982e-05
173                      24                       8                       0   -1.22287983682842e-07    2.31110247932147e-07    3.34102788243304e-07
174                      26                      10                5.656854   -0.000634473134274797    0.000653697828215322    0.000479066174229717
175                      26                      10                2.828427   -7.65135067264083e-06    7.69204669625283e-06    1.06078751699045e-05
176                      26                      10                       0   -1.47345432998499e-06     1.4480269219976e-06    2.86165992325071e-06
177                      28                       8                5.656854   -2.58640946688121e-06     2.6279281936264e-06    1.29988648346929e-06
178                      28                       8                2.828427   -1.91274875981318e-06    1.92403817723093e-06    1.82607609977687e-06
179                      28                       8                       0   -1.97919150352855e-08    1.97727207445129e-08    2.74767815762174e-08
180                      30                      10                5.656854   -1.07329585018502e-05    6.00245171580677e-06    4.14692420759682e-06
181                      30                      10                2.828427   -2.63037591670852e-07    1.48582410062132e-07    1.94958964463489e-07
182                      30                      10                       0   -9.32511457435125e-08    5.33212204914098e-08    1.01345158978352e-07
183                       0                      12                5.656854   -4.15947038512071e-07    1.34454756007186e-07    1.44719799629595e-07
184                       0                      12                2.828427   -3.93809566295868e-07    1.34568863589251e-07    2.72748144244028e-07
185                       0                      12                       0   -5.29310734665065e-09    1.76185747303215e-09    5.25976523999255e-09
186                       2                      14                5.656854    4.51441428996181e-06    6.69868158724555e-07    1.54846641950438e-06
187                       2                      14                2.828427    1.27370070655744e-07    2.02718125789213e-08     8.6821825203433e-08
188                       2                      14                       0    5.09853309927661e-08    8.44969766159524e-09    5.25731076767929e-08
189                       4                      12                5.656854    6.61291014122513e-06    2.25709535028604e-06    2.57333813334607e-06
190                       4                      12                2.828427    4.51277549293684e-06    1.59507640027324e-06    3.37075903327195e-06
191                       4                      12                       0    4.33567232825454e-08    1.58351886561699e-08    4.73723347435748e-08
192                       6                      14                5.656854    0.000990766574151055    0.000180397619077013    0.000518346086548138
193                       6                      14                2.828427    1.21167095413198e-05    2.46970671685127e-06    1.20352832968834e-05
194                       6                      14                       0     2.2910869817351e-06    5.04786928596253e-07    3.28186730653886e-06
195                       8                      12                5.656854    0.000636550969178469    0.000390483267123096    0.000501973922790809
196                       8                      12                2.828427    0.000165575120655905    0.000103909316941023    0.000238147354717769
197                       8                      12                       0    7.52087326086447e-07    4.76158513051404e-07    1.50573307693471e-06
198                      10                      14                5.656854     -0.0024741632252018     0.00634314249540495     -0.0174125679198819
199                      10                      14                2.828427    0.000158024529262458    7.04487165305524e-05    0.000391967792525154
200                      10                      14                       0    1.54405144755032e-05    7.02883426172818e-06    4.96688782259877e-05
201                      12                      12                5.656854     0.00281895796992494     0.00484548619977353     0.00693577168931807