ITEM: TIMESTEP
0
ITEM: NUMBER OF ATOMS
422
ITEM: BOX BOUNDS pp pp pp
0.0000000000000000e+00 3.2000000000000000e+01
0.0000000000000000e+00 3.2000000000000000e+01
0.0000000000000000e+00 3.2000000000000000e+01
ITEM: ATOMS id xu yu zu fx fy fz
1        13.1437342499553         15.981322871794        8.65465205611675       -1.17576736460418      -0.728576553036877      -0.192488160952672
2        18.7807376079457         15.942479009509        8.61010276787463        2.94937621817199         3.0257493530025       0.457046223278911
3        17.3885396842517        15.9739898030997        8.64304469033474       -3.45877432064209       -2.57005091911984       -0.76363076731825
4        14.5330219882232          15.94690189221        8.61879994927416        4.37047338319415         4.7360569964368        1.09898426080576
5        16.6585562731671        14.7072059555616        8.61433110539791        2.39741388854187        3.24504665920295        0.76980020302518
6        15.2321835433157        14.7056491611602         8.6142065524483       0.307912363702182      -0.290613349665431      -0.130195256936941
7        15.3194454772544        17.2701258176145         8.7039536122268        -6.2112233762395       -6.55029901387889       -1.33105333539955
8        16.6708679114306        17.1967323165916        8.62912787000906        4.24327800802647        3.76198637319816       0.816182983221478
9        14.4790080833417        13.5096974037595        8.61810116258437         1.1435328760116       0.404471133484965       0.184162039169775
10        17.4889204441959        13.5797683653506        8.68521696146458       -2.59559877844971       -3.09045448476434      -0.286321842176449
11        14.5282220927668        18.4367041938869        8.67220854199384       -2.02514616334261      -0.624728950638889      0.0248570628094707
12         17.456296577576        18.4249372810997        8.65748646692084      -0.381559591331703      -0.267950005111468      0.0632031005918624
13        13.1204527855953        13.5555861132571        8.64999152535952     0.00349484424634329        1.34807104282221       0.140561785393595
14        13.0761336628244         18.358239616985         8.6105348547107         3.6861918730013         2.9491161151209       0.678829355832267
15        18.8687561061945        13.5859801735985        8.67463788002642      -0.911414439234604       -2.04148702235127      -0.184417069946599
16        18.8476103173974        18.4118070164816        8.65835454590113      0.0918359212445571      -0.159463600033512   -0.000821411193034949
17        12.4187596332394        17.1862837387403        8.64881379510039       -2.20040957937029        -2.6820473455518      -0.661265486702404
18        12.4278245493096        14.7698753056334           8.65544549057      -0.551103707872277      -0.717202602944314      -0.142946759100271
19        19.5337567422443        14.7655626578241        8.64398554555203       0.446992151346461       0.312641436699154     -0.0527857084888674
20         19.513959662583        17.1712389305143        8.62662168755471        2.40776877988346        2.31030569309516        0.59427999035678
21        20.9419194538195        14.8112195170178        8.64363443119542      -0.454805195589664       0.426260509560701     -0.0904562366626141
22         20.983666051458        17.1891629187831        8.68772468920731       -3.95269935014601       -3.95422329307375      -0.985343044308041
23        11.0124877697341        14.8063209260656        8.64871209657303      -0.743674347031765       -1.34306749046736       0.274200751830282
24        10.9726094297845        17.1026393889128        8.61117741663914        6.29247248371475         6.5063874076237        1.12463412388402
25        21.5742070084359        15.9794776258141        8.64433054769638        1.55351621967808        1.50091804407808       0.474068476418458
26        10.4157911538896        16.0098505580824        8.68595057941802       -4.83072385077521       -5.71239366610541      -0.589932248429299
27        21.6399026768894        18.2166287719917        8.68755663106538      0.0904350880102842     -0.0681277817390745       0.200718395955937
28        21.5975670707969        13.7820863537915        8.64081478409676      0.0686919217427712      0.0786497123182259      0.0634159020316419
29         10.342561270414        18.1573720069828        8.63959651968654      -0.967348820656193       -1.33122870347581      -0.157801215248884
30        10.3160774893602        13.7386814158294        8.60870649909969        2.02316679903727        3.39190377929883       0.359556043742694
31        12.6491491444334        12.6647371222841        8.70613232219076       -1.48298512081378        -1.8633039234717      -0.037451263822732
32        12.5571311059057        19.3145109265157        8.62087760530643      -0.222815569183561      -0.275462580636948      -0.163265404174263
33        19.3345545294092        12.5765047310886        8.61109099645729       0.324506027098097        1.12784263362351       0.261914002206162
34        19.4097428767767        19.3934849300232        8.69304266963427      -0.715772872832076       -1.29840798619437     -0.0553299368053539
35        14.9199165174532        12.5265905084659        8.61447994458632       0.210864619969054      0.0254287302615292    -0.00591798783173469
36        14.9548361220339        19.4011331594927         8.6562610133519       0.168936789647593       0.692556823145184      0.0221328478151917
37        17.0295206299463        12.5825536156641        8.66837870592477       0.395896396067464       0.502201048839053      0.0986460802345321
38        17.0540190880754         19.446675121129        8.69973863054444      -0.292110607299242      -0.779505872551044     -0.0530899368910891
39                       0                       0                5.656854                       0                       0                       0
40                       0                       0                2.828427                       0                       0                       0
41                       0                       0                       0                       0                       0                       0
42                       2                       2                5.656854    6.21139364393938e-10    8.76778399765993e-10    2.20477958198596e-10
43                       2                       2                2.828427                       0                       0                       0
44                       2                       2                       0                       0                       0                       0
45                       4                       0                5.656854                       0                       0                       0
46                       4                       0                2.828427                       0                       0                       0
47                       4                       0                       0                       0                       0                       0
48                       6                       2                5.656854    1.81046274029606e-08    3.71355911693247e-08    9.52101477288197e-09
49                       6                       2                2.828427    6.65729952067465e-10     1.3902041441748e-09    6.98420643452955e-10
50                       6                       2                       0                       0                       0                       0
51                       8                       0                5.656854    6.59813101966766e-10    7.08436438812965e-11    4.65051038106006e-10
52                       8                       0                2.828427    3.67074656040797e-10   -3.63141823459123e-11      4.653587434982e-10
53                       8                       0                       0                       0                       0                       0
54                      10                       2                5.656854    7.83152789300209e-08    3.02755072848741e-07    7.96951075475446e-08
55                      10                       2                2.828427    2.83494173513417e-09     1.1035376282855e-08    5.64424309604019e-09
56                      10                       2                       0    9.66278709698095e-10    4.19783677491266e-09     3.2510346880247e-09
57                      12                       0                5.656854     1.3689777851224e-09    3.47749827207156e-10    2.18941600069141e-09
58                      12                       0                2.828427    1.64837206272626e-09    9.89092686527837e-10    5.43401856293216e-09
59                      12                       0                       0                       0                       0                       0
60                      14                       2                5.656854    4.94690761073312e-08    7.52290491981455e-07    2.01273538614173e-07
61                      14                       2                2.828427    1.68565508140562e-09    2.61431502439392e-08    1.35761240869751e-08
62                      14                       2                       0    8.31551861245867e-10    1.11053160577795e-08    8.69790451877902e-09
63                      16                       0                5.656854    1.90397018131624e-11    3.53639875465494e-10    3.32990359333545e-09
64                      16                       0                2.828427    1.66145553142631e-11    4.13256732583884e-10    7.33719923891369e-09
65                      16                       0                       0                       0                       0                       0
66                      18                       2                5.656854   -4.99109114660471e-08    7.44917492020928e-07    1.99686334214023e-07
67                      18                       2                2.828427   -1.71922230323946e-09    2.58813420915274e-08    1.34559734318024e-08
68                      18                       2                       0   -8.31070283501176e-10    1.09583922833602e-08    8.59624002875729e-09
69                      20                       0                5.656854   -1.34142143676833e-09     1.6599743287968e-10    2.23020943395039e-09
70                      20                       0                2.828427   -1.52202824083154e-09    -9.1254647320835e-10    4.78729225934776e-09
71                      20                       0                       0                       0                       0                       0
72                      22                       2                5.656854   -7.79476564463245e-08    2.99605316436182e-07    7.89851549899293e-08
73                      22                       2                2.828427   -2.82857217570493e-09    1.09232748961538e-08    5.60134348968241e-09
74                      22                       2                       0   -9.83121612426962e-10    4.20684389381986e-09    3.26804025133857e-09
75                      24                       0                5.656854   -6.86359523638512e-10    1.16905399265235e-11     4.8161099057229e-10
76                      24                       0                2.828427   -4.11246746508456e-10    2.90818834753169e-11    5.17295367780163e-10
77                      24                       0                       0                       0                       0                       0
78                      26                       2                5.656854   -1.77151308824383e-08    3.56019333613617e-08    9.14766288167539e-09
79                      26                       2                2.828427   -6.21286912392999e-10    1.29510484340951e-09    6.50625632164548e-10
80                      26                       2                       0                       0                       0                       0
81                      28                       0                5.656854                       0                       0                       0
82                      28                       0                2.828427                       0                       0                       0
83                      28                       0                       0                       0                       0                       0
84                      30                       2                5.656854   -5.44887015189855e-10    7.64053211744641e-10    1.93506035548238e-10
85                      30                       2                2.828427                       0                       0                       0
86                      30                       2                       0                       0                       0                       0
87                       0                       4                5.656854    2.47845075387116e-11    3.24526677289766e-10    9.86571135290289e-11
88                       0                       4                2.828427                       0                       0                       0
89                       0                       4                       0                       0                       0                       0
90                       2                       6                5.656854    1.06527999456355e-07    9.79665010989571e-08     3.6293428732226e-08
91                       2                       6                2.828427    3.96642408919099e-09    3.60766807933559e-09    2.61052299769476e-09
92                       2                       6                       0    1.22419203465197e-09    1.13919478986198e-09    1.26726932719639e-09
93                       4                       4                5.656854    1.16965270794935e-08    1.61486676926394e-08     4.8874068477348e-09
94                       4                       4                2.828427    1.40913830972761e-08    1.97097604980151e-08    1.15830413872168e-08
95                       4                       4                       0    1.20168520986673e-10    1.85286349648501e-10    1.63787656080508e-10
96                       6                       6                5.656854    3.42927426923477e-06    5.16216834652844e-06    1.95552130249683e-06
97                       6                       6                2.828427    9.47010599628842e-08    1.40267825792789e-07    1.02928719451553e-07
98                       6                       6                       0    3.65148080166444e-08    5.34229036281384e-08    5.81807843098319e-08
99                       8                       4                5.656854    1.29618156258729e-07    3.09760286823577e-07    9.63850884665682e-08
100                       8                       4                2.828427    1.33138953263144e-07    3.14466866849177e-07    1.89414576704266e-07
101                       8                       4                       0     1.7925654958204e-09    4.22627111313997e-09    3.79761181443661e-09
102                      10                       6                5.656854    2.15595743868777e-05    6.50893988232909e-05    2.60025824551184e-05
103                      10                       6                2.828427    4.53718013023395e-07    1.34335873590917e-06     1.0277470990186e-06
104                      10                       6                       0    1.38874394306486e-07    4.01086494071431e-07    4.49088807582338e-07
105                      12                       4                5.656854    2.67856873641332e-07    1.58039593544295e-06    5.09348737360324e-07
106                      12                       4                2.828427    2.41714479266084e-07    1.39155104424685e-06    8.63523771830325e-07
107                      12                       4                       0    3.03548877197526e-09    1.71167635239705e-08    1.56441393440863e-08
108                      14                       6                5.656854    1.26713882911173e-05    0.000187066463310542    7.74980033911627e-05
109                      14                       6                2.828427    2.56607273804158e-07    3.39415026663157e-06    2.68421982778853e-06
110                      14                       6                       0    7.61221172867168e-08    9.04719643897943e-07    1.04116603382438e-06
111                      16                       4                5.656854   -7.42853180048997e-09    2.38127182972301e-06    7.76148051574534e-07
112                      16                       4                2.828427   -6.55270063501446e-09    2.04369971716958e-06    1.28305217941995e-06
113                      16                       4                       0   -4.59095441178624e-11     2.4440779442446e-08    2.25798770620913e-08
114                      18                       6                5.656854   -1.23716874741286e-05    0.000183643595233067    7.62633145331102e-05
115                      18                       6                2.828427   -2.59189614545053e-07    3.33349496792495e-06     2.6407959445466e-06
116                      18                       6                       0   -7.88332872573701e-08    8.90375311306103e-07    1.02562833264144e-06
117                      20                       4                5.656854   -2.62271110444306e-07    1.57018644449691e-06    5.06923540644483e-07
118                      20                       4                2.828427   -2.37174229316175e-07    1.37597879597307e-06     8.5604090412003e-07
119                      20                       4                       0   -2.99344039766014e-09    1.68572008553816e-08    1.54383091516418e-08
120                      22                       6                5.656854   -2.18274815392691e-05    6.45389634655626e-05    2.58754904203025e-05
121                      22                       6                2.828427   -4.53851336744511e-07    1.32253615242183e-06    1.01625498981643e-06
122                      22                       6                       0   -1.37587610910568e-07    3.92646051914029e-07    4.40975456318258e-07
123                      24                       4                5.656854   -1.29226040426349e-07    3.01300869370115e-07    9.39938193565897e-08
124                      24                       4                2.828427   -1.32325154607628e-07    3.05819863449169e-07    1.84809613773952e-07
125                      24                       4                       0    -1.7905640053619e-09    4.20107528723148e-09    3.76832683409261e-09
126                      26                       6                5.656854   -3.26499465188119e-06    4.80136953546258e-06    1.82372182853969e-06
127                      26                       6                2.828427   -9.06806557814521e-08    1.31557493793869e-07    9.66838897762682e-08
128                      26                       6                       0   -3.48617548085976e-08     4.9792055818504e-08    5.45438075599119e-08
129                      28                       4                5.656854   -1.10033378794674e-08      1.494471729695e-08    4.53368420702814e-09
130                      28                       4                2.828427   -1.33937218472157e-08    1.83960438069815e-08    1.08211868318511e-08
131                      28                       4                       0   -1.48700216390805e-10    2.04430851234062e-10    1.85633453334474e-10
132                      30                       6                5.656854   -9.68565923387364e-08    8.86256324620963e-08    3.28522160656254e-08
133                      30                       6                2.828427   -3.65042885934349e-09    3.29309908446766e-09     2.3772060354587e-09
134                      30                       6                       0   -1.06820315548607e-09    9.89338358238289e-10    1.09850869338843e-09
135                       0                       8                5.656854     1.1721646281138e-09    1.31804036409362e-08    6.26509369304128e-09
136                       0                       8                2.828427    1.27376892538595e-09    1.50017821305336e-08    1.40942683014321e-08
137                       0                       8                       0    2.04788612083803e-11    1.58722839627277e-10    2.37682872714854e-10
138                       2                      10                5.656854    3.47686301087036e-06     1.7466675533273e-06     1.1982532335587e-06
139                       2                      10                2.828427    9.80531268075918e-08    4.98867412088908e-08    6.55484815678239e-08
140                       2                      10                       0    3.92873110990668e-08    2.01347034037414e-08    3.86339215840992e-08
141                       4                       8                5.656854    1.10340857150826e-06    9.83845519747896e-07    4.81706924060391e-07
142                       4                       8                2.828427    9.15099636741584e-07    8.12773589014633e-07    7.67758606421542e-07
143                       4                       8                       0    1.05582339358215e-08    9.32848107231693e-09    1.29636579084723e-08
144                       6                      10                5.656854    0.000301273776818604    0.000258070371496576    0.000187112694139934
145                       6                      10                2.828427    4.23638183472158e-06    3.60197779739679e-06    4.94001813604033e-06
146                       6                      10                       0     9.2179696769791e-07    7.76549004466251e-07    1.52787042878063e-06
147                       8                       8                5.656854    2.38827217804238e-05     4.1351639181675e-05    2.11502973616608e-05
148                       8                       8                2.828427    1.24763903036547e-05    2.07289506456577e-05    2.03269139970371e-05
149                       8                       8                       0    9.47611273555154e-08    1.51273176035376e-07    2.16144326738859e-07
150                      10                      10                5.656854     0.00283287516813561     0.00587181004835895     0.00461892683931957
151                      10                      10                2.828427    2.44934701467892e-05    4.80040186067026e-05    7.02408944133579e-05
152                      10                      10                       0    3.58757024860568e-06    6.54373959183667e-06     1.3560441544673e-05
153                      12                       8                5.656854    6.45881020668279e-05    0.000291551530644478     0.00016270501563551
154                      12                       8                2.828427    2.45339944399467e-05    0.000106672240750002    0.000111526236103202
155                      12                       8                       0    1.47450390655604e-07    6.07923095080922e-07    9.11072481870105e-07
156                      14                      10                5.656854     0.00103231742757976      0.0154128202336082      0.0134306416427507
157                      14                      10                2.828427     1.0009086089465e-05    0.000114847140131144    0.000182920543580151
158                      14                      10                       0    1.55452168180713e-06    1.37521840630917e-05    3.02431005705792e-05
159                      16                       8                5.656854   -4.01043729327109e-06    0.000430688485196889    0.000247098677890265
160                      16                       8                2.828427   -1.23519723229528e-06    0.000151119013673938    0.000162088053311967
161                      16                       8                       0   -5.78476262971215e-09    8.36182554378188e-07     1.2796211817088e-06
162                      18                      10                5.656854     -0.0010359002872936      0.0151645955647114      0.0132549866746079
163                      18                      10                2.828427   -1.00254242714004e-05    0.000111678136130326    0.000177736480876427
164                      18                      10                       0    -1.6315228137304e-06    1.35086388264476e-05    2.96463807414319e-05
165                      20                       8                5.656854   -6.26388579167623e-05     0.00029094753905104    0.000163321809837622
166                      20                       8                2.828427   -2.37697799620049e-05    0.000104909991444025    0.000110177834151607
167                      20                       8                       0   -1.44344648384703e-07    5.95212580469619e-07    8.93639581735521e-07
168                      22                      10                5.656854    -0.00288334259486508     0.00571965720359928     0.00452666048047762
169                      22                      10                2.828427   -2.45039922771275e-05    4.66616860880564e-05    6.85206595681543e-05
170                      22                      10                       0   -3.54938336796028e-06    6.37508734330752e-06     1.3222764955166e-05
171                      24                       8                5.656854   -2.33315191444851e-05    3.89349165792513e-05    1.99857552643034e-05
172                      24                       8                2.828427   -1.22347086091502e-05    1.97503729823346e-05    1.94114063503669e-05
173                      24                       8                       0   -9.28959105792004e-08    1.45362613047631e-07    2.07976764239563e-07
174                      26                      10                5.656854   -0.000275905518779476    0.000233810394418677    0.000168562304527864
175                      26                      10                2.828427   -3.97380349690069e-06    3.34113208877573e-06    4.55274541876972e-06
176                      26                      10                       0   -8.80681003101066e-07    7.33898962742413e-07    1.43765057426201e-06
177                      28                       8                5.656854   -1.00542195311577e-06     8.8832708636974e-07    4.34309436303336e-07
178                      28                       8                2.828427   -8.44951836823542e-07    7.43441694893359e-07      7.000464497876e-07
179                      28                       8                       0   -9.91970107917843e-09    8.68261182360704e-09    1.20261571256783e-08
180                      30                      10                5.656854   -3.13419279131032e-06    1.58332799189126e-06    1.07674459413651e-06
181                      30                      10                2.828427    -8.9492239101172e-08     4.5733444023494e-08    5.94869138954209e-08
182                      30                      10                       0   -3.64201755988444e-08    1.86735837174822e-08    3.55305218044536e-08
183                       0                      12                5.656854      1.076746056581e-08    6.16561803723358e-08    6.54601786079175e-08
184                       0                      12                2.828427    1.09864188387493e-08    6.93039255820186e-08    1.40007668455699e-07
185                       0                      12                       0    1.50534272791696e-10    1.03671529971018e-09    2.98940179380716e-09
186                       2                      14                5.656854    1.97470154779816e-05    2.72750925383793e-06    6.80998383261611e-06
187                       2                      14                2.828427    4.79196517535806e-07    7.06561828159361e-08    3.20670391535479e-07
188                       2                      14                       0     1.6636720633838e-07    2.59624975596704e-08    1.62838874674551e-07
189                       4                      12                5.656854    2.50165334465939e-05    9.30804973306964e-06     1.1143329865504e-05
190                       4                      12                2.828427    1.37184600944188e-05    5.33222760909889e-06    1.17175120709803e-05
191                       4                      12                       0    1.07940179183357e-07    4.36079261624071e-08    1.34163282777845e-07
192                       6                      14                5.656854     0.00326937170726023    0.000644557135120256     0.00205738579138393
193                       6                      14                2.828427    3.06002110589541e-05    6.96512197956469e-06    3.62842953783516e-05
194                       6                      14                       0    4.66965967554567e-06    1.17052259013671e-06    7.88616263610717e-06
195                       8                      12                5.656854     0.00136738815558925     0.00107130784264573     0.00141513054109404
196                       8                      12                2.828427    0.000296823807809373    0.000230402501207081    0.000545228083137741
197                       8                      12                       0    1.16799217052471e-06    8.93996425853163e-07    2.89370389571856e-06
198                      10                      14                5.656854     -0.0208927374000064    -0.00502600084456285      -0.155111382163633
199                      10                      14                2.828427    0.000185075650394862    0.000112324959510188    0.000653077684768403
200                      10                      14                       0    1.75581916032635e-05    1.03803480772198e-05    7.56921213221585e-05
201                      12                      12                5.656854     0.00192104401539612     0.00565006405015794     0.00808639200268979