ITEM: TIMESTEP
0
ITEM: NUMBER OF ATOMS
422
ITEM: BOX BOUNDS ff ff ff
0.0000000000000000e+00 2.3200000000000000e+02
0.0000000000000000e+00 2.3200000000000000e+02
0.0000000000000000e+00 2.3200000000000000e+02
ITEM: ATOMS id xu yu zu fx fy fz
1        113.123116234408        115.960704856247         108.63403804057        2242.05906979561       -1852.48423950648       -14.4775391581626
2        118.849237790028        116.010979191592        108.678606949957       -2727.62211883703       -1816.06796960227        16.2053984176891
3        117.425654547218        116.011104666066        108.680163553301       -1062.24302072118       -3404.57116620236        298.764805922553
4        114.595020685566        116.008900589553        108.680802646617       -3132.46705605289       -2695.55448550209        394.671075132721
5        116.657949616915        114.706599299309        108.613728449145        3954.68226777008        2788.60272023857       -470.144813979083
6        115.278847612107        114.752313229952         108.66087462124       -3813.73575576355        -955.23201110346        307.269614588558
7        115.265021766461        117.215702106821        108.649533901434         967.38420264689        2889.53133791169       -291.637737995383
8        116.684236034081        117.210100439242        108.642499992659       -240.012304043862        1116.82305827721       -249.294039288798
9        114.492779141588        113.523468462006        108.631876220831       -5732.48321493395        23520.9236438781       -319.957775806088
10        117.429926899197        113.520774820351        108.626227416465        13504.4908954344        29644.3093827887       -719.559781082519
11        114.537256070305        118.445738171425        108.681246519532       -8298.14021102366       -28795.4923583227        499.052707477948
12        117.452376726655        118.421017430178           108.653570616        3427.18219821626       -19023.4616410084       -288.265035810291
13          113.1172440257        113.552377353362        108.646786765464        19243.5610868578        37261.9613597044       -1566.58043403351
14        113.164482944637        118.446588898798        108.698888136524        9366.94499104494       -23923.6356105062        1676.45255563444
15        118.858972326961        113.576196394365        108.664858100793       -10282.7374509933         20011.171762827       -151.174572571332
16        118.823302746587        118.387499445671        108.634050975091       -306.802965880633       -3092.39613758873       -765.811387091383
17        112.400818087204        117.168342192705        108.630876249065        7321.00811092848        2904.08309550226       -786.186408527645
18        112.379529439022        114.721580195346        108.607154380283        952.419305909313        2739.39035048065       -451.055891380986
19        119.596225359692        114.828031275271        108.706458162999       -4758.08719339894       -2301.85196095461        700.147922504486
20        119.541017584804        117.198296852736        108.653683609776        1890.50495684077        1346.53257551806       -32.8902780428068
21        120.952193931137        114.821493994336        108.653912908513       -136.667802299443         8441.4916887149         135.52740354391
22        120.945256103804        117.150752971129        108.649318741553       -1574.74734985922       -2962.80994110823       -388.193873040096
23        110.990937792616        114.784770948948        108.627166119455        10407.8010829891        22411.6110360266       -982.944936736632
24        111.059254756203        117.189284715332        108.697826743058        2386.05960967805       -11747.4733519168        1257.42144528103
25        121.583678240188        115.988948857566        108.653805779448        6099.38120109043       -68.5266586396568        21.0955716438377
26        110.423439638755        116.017499042948        108.693603064283       -4794.58529918568       -1016.02463071783        209.171563994991
27        121.645857820895        118.222583915997        108.693515775071        5468.10152850724        8364.28596676777        344.839020983324
28        121.568105164398        113.752624447393        108.611356877698        8106.08017556174       -14062.6573927394       -559.997311681384
29        110.365325049376        118.180135785944        108.662364298648       -12042.7541513045         17194.809831498       -615.149838070906
30         110.36747610871         113.79008003518         108.66010911845       -16478.6613537817       -26284.9404404449        870.460308954598
31         112.62895219299         112.64454017084        108.685939370747       -23840.4356991762       -44323.0893121588        1911.55838213522
32        112.587779497152        119.345159317762        108.651529996552       -17143.4639995601        26711.5758881307       -1407.60093604502
33        119.395128044483        112.637078246163        108.671668511531        13517.3207584418       -23676.1497190526        171.704075094349
34         119.40335434033        119.387096393577        108.686658133188        5683.92485013021        9795.07754563174        515.373527489178
35        114.942152749529        112.548826740541        108.636720176662         12597.306174164       -27319.1478549742        135.702831801255
36         114.96553790649        119.411834943949        108.666966797808        14894.6729411541        33593.1605937089       -496.540045119918
37        117.004514226421        112.557547212138        108.643376302399       -15545.7947884424       -35198.2913281415        626.565094048793
38        117.027397289582        119.420053322636        108.673120832051       -10119.4436719028        23784.5163725858        465.479330813063
39                     100                     100              105.656854                       0                       0                       0
40                     100                     100              102.828427                       0                       0                       0
41                     100                     100                     100                       0                       0                       0
42                     102                     102              105.656854                       0                       0                       0
43                     102                     102              102.828427                       0                       0                       0
44                     102                     102                     100                       0                       0                       0
45                     104                     100              105.656854                       0                       0                       0
46                     104                     100              102.828427                       0                       0                       0
47                     104                     100                     100                       0                       0                       0
48                     106                     102              105.656854                       0                       0                       0
49                     106                     102              102.828427                       0                       0                       0
50                     106                     102                     100                       0                       0                       0
51                     108                     100              105.656854                       0                       0                       0
52                     108                     100              102.828427                       0                       0                       0
53                     108                     100                     100                       0                       0                       0
54                     110                     102              105.656854                       0                       0                       0
55                     110                     102              102.828427                       0                       0                       0
56                     110                     102                     100                       0                       0                       0
57                     112                     100              105.656854                       0                       0                       0
58                     112                     100              102.828427                       0                       0                       0
59                     112                     100                     100                       0                       0                       0
60                     114                     102              105.656854                       0                       0                       0
61                     114                     102              102.828427                       0                       0                       0
62                     114                     102                     100                       0                       0                       0
63                     116                     100              105.656854                       0                       0                       0
64                     116                     100              102.828427                       0                       0                       0
65                     116                     100                     100                       0                       0                       0
66                     118                     102              105.656854                       0                       0                       0
67                     118                     102              102.828427                       0                       0                       0
68                     118                     102                     100                       0                       0                       0
69                     120                     100              105.656854                       0                       0                       0
70                     120                     100              102.828427                       0                       0                       0
71                     120                     100                     100                       0                       0                       0
72                     122                     102              105.656854                       0                       0                       0
73                     122                     102              102.828427                       0                       0                       0
74                     122                     102                     100                       0                       0                       0
75                     124                     100              105.656854                       0                       0                       0
76                     124                     100              102.828427                       0                       0                       0
77                     124                     100                     100                       0                       0                       0
78                     126                     102              105.656854                       0                       0                       0
79                     126                     102              102.828427                       0                       0                       0
80                     126                     102                     100                       0                       0                       0
81                     128                     100              105.656854                       0                       0                       0
82                     128                     100              102.828427                       0                       0                       0
83                     128                     100                     100                       0                       0                       0
84                     130                     102              105.656854                       0                       0                       0
85                     130                     102              102.828427                       0                       0                       0
86                     130                     102                     100                       0                       0                       0
87                     100                     104              105.656854                       0                       0                       0
88                     100                     104              102.828427                       0                       0                       0
89                     100                     104                     100                       0                       0                       0
90                     102                     106              105.656854                       0                       0                       0
91                     102                     106              102.828427                       0                       0                       0
92                     102                     106                     100                       0                       0                       0
93                     104                     104              105.656854                       0                       0                       0
94                     104                     104              102.828427                       0                       0                       0
95                     104                     104                     100                       0                       0                       0
96                     106                     106              105.656854                       0                       0                       0
97                     106                     106              102.828427                       0                       0                       0
98                     106                     106                     100                       0                       0                       0
99                     108                     104              105.656854                       0                       0                       0
100                     108                     104              102.828427                       0                       0                       0
101                     108                     104                     100                       0                       0                       0
102                     110                     106              105.656854                       0                       0                       0
103                     110                     106              102.828427                       0                       0                       0
104                     110                     106                     100                       0                       0                       0
105                     112                     104              105.656854                       0                       0                       0
106                     112                     104              102.828427                       0                       0                       0
107                     112                     104                     100                       0                       0                       0
108                     114                     106              105.656854                       0                       0                       0
109                     114                     106              102.828427                       0                       0                       0
110                     114                     106                     100                       0                       0                       0
111                     116                     104              105.656854                       0                       0                       0
112                     116                     104              102.828427                       0                       0                       0
113                     116                     104                     100                       0                       0                       0
114                     118                     106              105.656854                       0                       0                       0
115                     118                     106              102.828427                       0                       0                       0
116                     118                     106                     100                       0                       0                       0
117                     120                     104              105.656854                       0                       0                       0
118                     120                     104              102.828427                       0                       0                       0
119                     120                     104                     100                       0                       0                       0
120                     122                     106              105.656854                       0                       0                       0
121                     122                     106              102.828427                       0                       0                       0
122                     122                     106                     100                       0                       0                       0
123                     124                     104              105.656854                       0                       0                       0
124                     124                     104              102.828427                       0                       0                       0
125                     124                     104                     100                       0                       0                       0
126                     126                     106              105.656854                       0                       0                       0
127                     126                     106              102.828427                       0                       0                       0
128                     126                     106                     100                       0                       0                       0
129                     128                     104              105.656854                       0                       0                       0
130                     128                     104              102.828427                       0                       0                       0
131                     128                     104                     100                       0                       0                       0
132                     130                     106              105.656854                       0                       0                       0
133                     130                     106              102.828427                       0                       0                       0
134                     130                     106                     100                       0                       0                       0
135                     100                     108              105.656854                       0                       0                       0
136                     100                     108              102.828427                       0                       0                       0
137                     100                     108                     100                       0                       0                       0
138                     102                     110              105.656854                       0                       0                       0
139                     102                     110              102.828427                       0                       0                       0
140                     102                     110                     100                       0                       0                       0
141                     104                     108              105.656854                       0                       0                       0
142                     104                     108              102.828427                       0                       0                       0
143                     104                     108                     100                       0                       0                       0
144                     106                     110              105.656854                       0                       0                       0
145                     106                     110              102.828427                       0                       0                       0
146                     106                     110                     100                       0                       0                       0
147                     108                     108              105.656854                       0                       0                       0
148                     108                     108              102.828427                       0                       0                       0
149                     108                     108                     100                       0                       0                       0
150                     110                     110              105.656854                       0                       0                       0
151                     110                     110              102.828427                       0                       0                       0
152                     110                     110                     100                       0                       0                       0
153                     112                     108              105.656854                       0                       0                       0
154                     112                     108              102.828427                       0                       0                       0
155                     112                     108                     100                       0                       0                       0
156                     114                     110              105.656854                       0                       0                       0
157                     114                     110              102.828427                       0                       0                       0
158                     114                     110                     100                       0                       0                       0
159                     116                     108              105.656854                       0                       0                       0
160                     116                     108              102.828427                       0                       0                       0
161                     116                     108                     100                       0                       0                       0
162                     118                     110              105.656854                       0                       0                       0
163                     118                     110              102.828427                       0                       0                       0
164                     118                     110                     100                       0                       0                       0
165                     120                     108              105.656854                       0                       0                       0
166                     120                     108              102.828427                       0                       0                       0
167                     120                     108                     100                       0                       0                       0
168                     122                     110              105.656854                       0                       0                       0
169                     122                     110              102.828427                       0                       0                       0
170                     122                     110                     100                       0                       0                       0
171                     124                     108              105.656854                       0                       0                       0
172                     124                     108              102.828427                       0                       0                       0
173                     124                     108                     100                       0                       0                       0
174                     126                     110              105.656854                       0                       0                       0
175                     126                     110              102.828427                       0                       0                       0
176                     126                     110                     100                       0                       0                       0
177                     128                     108              105.656854                       0                       0                       0
178                     128                     108              102.828427                       0                       0                       0
179                     128                     108                     100                       0                       0                       0
180                     130                     110              105.656854                       0                       0                       0
181                     130                     110              102.828427                       0                       0                       0
182                     130                     110                     100                       0                       0                       0
183                     100                     112              105.656854                       0                       0                       0
184                     100                     112              102.828427                       0                       0                       0
185                     100                     112                     100                       0                       0                       0
186                     102                     114              105.656854                       0                       0                       0
187                     102                     114              102.828427                       0                       0                       0
188                     102                     114                     100                       0                       0                       0
189                     104                     112              105.656854                       0                       0                       0
190                     104                     112              102.828427                       0                       0                       0
191                     104                     112                     100                       0                       0                       0
192                     106                     114              105.656854                       0                       0                       0
193                     106                     114              102.828427                       0                       0                       0
194                     106                     114                     100                       0                       0                       0
195                     108                     112              105.656854                       0                       0                       0
196                     108                     112              102.828427                       0                       0                       0
197                     108                     112                     100                       0                       0                       0
198                     110                     114              105.656854                       0                       0                       0
199                     110                     114              102.828427                       0                       0                       0
200                     110                     114                     100                       0                       0                       0
201                     112                     112              105.656854                       0                       0                       0