ITEM: TIMESTEP
0
ITEM: NUMBER OF ATOMS
422
ITEM: BOX BOUNDS pp pp pp
0.0000000000000000e+00 3.2000000000000000e+01
0.0000000000000000e+00 3.2000000000000000e+01
0.0000000000000000e+00 3.2000000000000000e+01
ITEM: ATOMS id xu yu zu fx fy fz
1        13.1459321938386        15.9835208156773                10.35685    0.000141628829085333   -3.67560714643889e-06    -0.00769541606247765
2        18.8274848400711        15.9892262416344                10.35685     -0.0001400574608654   -2.46334534137471e-06    -0.00769982811376509
3         17.402344993917         15.987795112765                10.35685    0.000116912612187769   -2.66547647626014e-06    -0.00773486928613205
4         14.571072038949        15.9849519429358                10.35685   -0.000113164237743102   -3.26387232900405e-06    -0.00773844103990319
5        16.7010751677692        14.7497248501637                10.35685    0.000123511744864468   -0.000130808692463708    -0.00774189823186219
6        15.2748269908674        14.7482926087119                10.35685   -0.000125622666215575   -0.000130479507479131    -0.00774379560766221
7        15.2723418650276        17.2230222053877                10.35685   -0.000126124776068826    0.000132852088558039    -0.00774055092382285
8        16.6985900414216        17.2244544465825                10.35685    0.000123496151873931     0.00013302742929612    -0.00773856530993165
9        14.5177569207574        13.5484462411751                10.35685     -9.491323882483e-05    8.53536505750901e-05    -0.00780153160656049
10        17.4605534827313        13.5514014038861                10.35685     9.8036304754523e-05    8.50129690492668e-05    -0.00780114352496709
11        14.5128635507729         18.421345651893                10.35685   -9.40517321276688e-05   -8.04004228130289e-05    -0.00780224747673903
12        17.4556601106552        18.4243008141789                10.35685    9.85118364452142e-05   -8.10974163904937e-05    -0.00780158239937915
13        13.1273112602358        13.5624445878976                10.35685    0.000130014433234571    8.58737295321432e-05    -0.00779187685900502
14        13.1224488081137        18.4045547622743                10.35685    0.000129937928999735   -8.03324059383825e-05     -0.0077932087442104
15         18.850968226168        13.5681922935721                10.35685   -0.000128821654892253    8.47642593435893e-05    -0.00779291257585544
16        18.8461057714963        18.4103024705805                10.35685   -0.000128380615441626   -8.11051862383561e-05    -0.00779401194486499
17         12.426795838139        17.1943199436399                10.35685    8.70910055925968e-05    0.000137368757298362    -0.00771627072358946
18        12.4292290587396        14.7712798150634                10.35685    8.72988557289005e-05   -0.000134737774976662    -0.00772146729157517
19        19.5466211966922        14.7784271122721                10.35685   -9.13711545603605e-05   -0.000135027235418454    -0.00772179022033668
20        19.5441879750283        17.2014672429596                10.35685   -9.18697003786696e-05    0.000136767375335134    -0.00771901111266374
21        20.9551350226241        14.8244350858224                10.35685    0.000137623156866814   -0.000134212856122313    -0.00775332440574915
22        20.9527913622507        17.1582882295758                10.35685    0.000137727485374051    0.000134773182003167    -0.00775140420135514
23        11.0206256731611        14.8144588294926                10.35685   -0.000137632825482148   -0.000132970857398445    -0.00775625952687593
24        11.0182820131454        17.1483119722736                10.35685   -0.000138058769541627    0.000135308236122417      -0.007752847874914
25        21.5867264607395        15.9919970781177                10.35685    5.83496409571663e-05   -1.12565305069738e-06    -0.00464895246157069
26        10.3866905744716        15.9807499786644                10.35685   -5.50946258308533e-05   -3.17899499734717e-06    -0.00465108347374992
27         21.609196045824        18.1859221409264                10.35685    5.88342667997843e-05    -2.9088962326812e-05    -0.00478244632765934
28        21.6136022867001        13.7981215696947                10.35685    5.81292071561311e-05    3.16855735349043e-05    -0.00478222160760984
29        10.3598147507275        18.1746254872963                10.35685   -5.46558292735832e-05   -2.74386250081318e-05     -0.0047843901635587
30        10.3642209902605        13.7868249167297                10.35685   -5.52702511669135e-05    3.33024253343948e-05    -0.00478304631325662
31        12.5998668222426        12.6154548000933                10.35685    5.13158733119745e-05    5.21358371273414e-05     -0.0025480432835836
32        12.5931035005993        19.3504833212092                10.35685    5.11485606305706e-05   -5.39371310395997e-05    -0.00255039846195987
33        19.3803135329519        12.6222637346313                10.35685   -5.24682807550888e-05    5.26678101624653e-05    -0.00255027849337673
34        19.3735502071424         19.357292260389                10.35685   -5.30222315085066e-05   -5.38494681656398e-05    -0.00255260830138648
35        14.9622865728669        12.5689605638796                10.35685   -6.28423547363033e-05    5.28511704193102e-05    -0.00258606593111749
36         14.955425108682        19.4017221461408                10.35685   -6.30717362185007e-05    -5.4786272383256e-05    -0.00258926891102032
37        17.0179919240215        12.5710249097393                10.35685    6.29789043808948e-05    5.28121616480692e-05    -0.00258424471904786
38         17.011130457531        19.4037864905846                10.35685    6.31871273093498e-05   -5.43723548168396e-05    -0.00258569775547027
39                       0                       0                5.656854                       0                       0                       0
40                       0                       0                2.828427                       0                       0                       0
41                       0                       0                       0                       0                       0                       0
42                       2                       2                5.656854                       0                       0                       0
43                       2                       2                2.828427                       0                       0                       0
44                       2                       2                       0                       0                       0                       0
45                       4                       0                5.656854                       0                       0                       0
46                       4                       0                2.828427                       0                       0                       0
47                       4                       0                       0                       0                       0                       0
48                       6                       2                5.656854    7.24004898936138e-09    1.48646307072006e-08    6.05421792184203e-09
49                       6                       2                2.828427     1.1514431728914e-10     2.5152165060704e-10    1.66821136290194e-10
50                       6                       2                       0                       0                       0                       0
51                       8                       0                5.656854    1.85795052678897e-10    1.57961560759032e-11    2.42399617908897e-10
52                       8                       0                2.828427                       0                       0                       0
53                       8                       0                       0                       0                       0                       0
54                      10                       2                5.656854    3.29148925947972e-08    1.28276948378682e-07    5.31073762277171e-08
55                      10                       2                2.828427    6.70122018636902e-10    2.65483517776961e-09    1.77052904184163e-09
56                      10                       2                       0                       0                       0                       0
57                      12                       0                5.656854     5.3090187263356e-10    9.32025719242567e-11    1.54808974801011e-09
58                      12                       0                2.828427    2.01349249809404e-10    3.20130156344339e-11    9.73708307209266e-10
59                      12                       0                       0                       0                       0                       0
60                      14                       2                5.656854    2.05156527180851e-08    3.11739377430724e-07      1.306669659275e-07
61                      14                       2                2.828427    4.35910026022013e-10    6.36445890967664e-09    4.28455948974956e-09
62                      14                       2                       0   -9.55805289960837e-12    6.48483389803789e-10    6.34148182280552e-10
63                      16                       0                5.656854   -3.43078113785291e-12    1.27973869873159e-10    2.44876682632661e-09
64                      16                       0                2.828427   -1.85787561773062e-12    3.41985490042446e-11    1.18896568689614e-09
65                      16                       0                       0                       0                       0                       0
66                      18                       2                5.656854   -2.10107826330232e-08    3.10060401432593e-07    1.29934824868728e-07
67                      18                       2                2.828427    -4.4611547412337e-10     6.3338322871641e-09    4.26303838972801e-09
68                      18                       2                       0    8.29665641068974e-12    6.45827855604214e-10    6.31294702121645e-10
69                      20                       0                5.656854   -5.34605776846397e-10    6.86299609016544e-11    1.54048397731475e-09
70                      20                       0                2.828427   -2.03386943892987e-10    2.36798828899707e-11    9.69356094515054e-10
71                      20                       0                       0                       0                       0                       0
72                      22                       2                5.656854   -3.26329647487128e-08    1.26254106462996e-07    5.22430670970791e-08
73                      22                       2                2.828427    -6.6545881780962e-10    2.61715127790265e-09    1.74448109451815e-09
74                      22                       2                       0                       0                       0                       0
75                      24                       0                5.656854   -1.84987659811236e-10    9.07108610872542e-12    2.39826902312451e-10
76                      24                       0                2.828427                       0                       0                       0
77                      24                       0                       0                       0                       0                       0
78                      26                       2                5.656854   -7.08715180007635e-09    1.44993457783498e-08    5.90140670455691e-09
79                      26                       2                2.828427   -1.12951982725105e-10    2.45848699113323e-10    1.62931388822649e-10
80                      26                       2                       0                       0                       0                       0
81                      28                       0                5.656854                       0                       0                       0
82                      28                       0                2.828427                       0                       0                       0
83                      28                       0                       0                       0                       0                       0
84                      30                       2                5.656854                       0                       0                       0
85                      30                       2                2.828427                       0                       0                       0
86                      30                       2                       0                       0                       0                       0
87                       0                       4                5.656854                       0                       0                       0
88                       0                       4                2.828427                       0                       0                       0
89                       0                       4                       0                       0                       0                       0
90                       2                       6                5.656854    4.30586106334147e-08    3.90825464096396e-08     2.2829879389281e-08
91                       2                       6                2.828427    8.22561742100075e-10    7.48181712167772e-10    7.10313525259766e-10
92                       2                       6                       0                       0                       0                       0
93                       4                       4                5.656854    5.03291345318697e-09    6.84733991271129e-09    3.26470966061082e-09
94                       4                       4                2.828427    2.89252959184955e-09    4.11589362287856e-09    3.16213097499926e-09
95                       4                       4                       0                       0                       0                       0
96                       6                       6                5.656854    1.21253904010304e-06    1.78140566928275e-06    1.06048436058782e-06
97                       6                       6                2.828427     1.9945988057507e-08    2.89146946774491e-08    2.73413456553527e-08
98                       6                       6                       0    4.24991133260054e-09    6.21911208794855e-09    8.27447201634322e-09
99                       8                       4                5.656854    5.13001630379454e-08     1.1999701101621e-07    5.86593783008379e-08
100                       8                       4                2.828427    3.00864519558042e-08    7.04396608781822e-08    5.51357717927651e-08
101                       8                       4                       0    1.82935431308263e-10    4.45183084209844e-10    4.92289579526278e-10
102                      10                       6                5.656854    6.73167491531174e-06    1.98881161284924e-05    1.24112744548679e-05
103                      10                       6                2.828427    8.32181588008153e-08    2.40366664142066e-07    2.36103393755057e-07
104                      10                       6                       0    1.74252017555998e-08    5.00693670246461e-08      6.732547426801e-08
105                      12                       4                5.656854    9.65476729648574e-08    5.69453812854079e-07      2.869657704681e-07
106                      12                       4                2.828427    5.13059365288617e-08    2.95018314578793e-07    2.36038184923249e-07
107                      12                       4                       0    3.10843992475743e-10    2.04940390232021e-09    2.28877551684922e-09
108                      14                       6                5.656854    3.73202519231163e-06    5.24681120187346e-05    3.38032252186932e-05
109                      14                       6                2.828427    4.56926176473891e-08    5.63299901429436e-07    5.68893545515012e-07
110                      14                       6                       0    9.26063339692057e-09     1.0959699994417e-07    1.50283319011313e-07
111                      16                       4                5.656854   -8.80098047147023e-10    8.43131276670541e-07    4.29135698683443e-07
112                      16                       4                2.828427   -4.49721483106453e-10    4.28531049990222e-07    3.45783521052276e-07
113                      16                       4                       0   -3.47774888883137e-12    3.23532263935517e-09    3.61820581138046e-09
114                      18                       6                5.656854   -3.83293530851206e-06    5.21820771134505e-05    3.36049739056923e-05
115                      18                       6                2.828427   -4.67909438800806e-08     5.6072347818941e-07    5.66082003255633e-07
116                      18                       6                       0   -9.48471468582368e-09    1.09181065145466e-07    1.49659630763484e-07
117                      20                       4                5.656854   -9.66774916144948e-08    5.63106675250879e-07    2.83620792329498e-07
118                      20                       4                2.828427   -5.14332313300727e-08    2.92160582699768e-07    2.33637794733984e-07
119                      20                       4                       0    -3.1270713983935e-10    2.03274349094756e-09    2.26892545543343e-09
120                      22                       6                5.656854    -6.6625379646673e-06    1.95440175854546e-05    1.21853154669168e-05
121                      22                       6                2.828427   -8.24470333177606e-08    2.36744900344153e-07     2.3236617616709e-07
122                      22                       6                       0    -1.7333769160649e-08      4.946170828411e-08     6.6453719954566e-08
123                      24                       4                5.656854    -5.0435076790766e-08    1.17404894291354e-07    5.73488030118832e-08
124                      24                       4                2.828427    -2.9653824141299e-08     6.9095696835204e-08     5.4043283419716e-08
125                      24                       4                       0   -1.10676349979566e-10    3.07595919476717e-10    3.42775690390706e-10
126                      26                       6                5.656854   -1.18333132832318e-06    1.73273547064411e-06    1.03040431046682e-06
127                      26                       6                2.828427    -1.9534941485641e-08    2.82274695008101e-08    2.66646427747994e-08
128                      26                       6                       0    -4.1778154344442e-09    6.09463719550295e-09    8.09972010730214e-09
129                      28                       4                5.656854   -4.89734432307179e-09    6.64640612890386e-09    3.16615816989846e-09
130                      28                       4                2.828427   -2.82194393946617e-09    4.00583123431452e-09    3.07462029192841e-09
131                      28                       4                       0                       0                       0                       0
132                      30                       6                5.656854   -4.16986625797954e-08    3.77904256316047e-08    2.20496321268356e-08
133                      30                       6                2.828427   -7.99238285919587e-10    7.25951981352569e-10    6.88354264316612e-10
134                      30                       6                       0                       0                       0                       0
135                       0                       8                5.656854    1.60399548576837e-10    5.35359949212059e-09    4.04022070849725e-09
136                       0                       8                2.828427    9.48535367283907e-10    2.83295416882452e-09    3.57530384786768e-09
137                       0                       8                       0                       0                       0                       0
138                       2                      10                5.656854    1.21591834030295e-06    6.21914274455766e-07    6.57466619964837e-07
139                       2                      10                2.828427    2.04883023950208e-08    1.06421371331288e-08    1.76129574674199e-08
140                       2                      10                       0    4.48853573214378e-09    2.33205873826221e-09    5.42702235685801e-09
141                       4                       8                5.656854    3.65573202164808e-07    3.24293401652629e-07    2.47762497495656e-07
142                       4                       8                2.828427    1.81168305571238e-07     1.6015242093928e-07    1.93418366237778e-07
143                       4                       8                       0    1.39175703128169e-09     1.2152538839827e-09     2.0397991916108e-09
144                       6                      10                5.656854     6.9975140292678e-05    5.95400060121974e-05    6.63196481763569e-05
145                       6                      10                2.828427    6.03949316047406e-07    5.09202778050872e-07    8.78067137404252e-07
146                       6                      10                       0    1.02518789750915e-07    8.57988606768413e-08    1.98049741302938e-07
147                       8                       8                5.656854     6.2851022349133e-06    1.03785601993156e-05    8.29575806142603e-06
148                       8                       8                2.828427    1.96037409953634e-06    3.12512592605884e-06    3.91925074409489e-06
149                       8                       8                       0    1.10486863861794e-08    1.73295776463251e-08    2.93471656695286e-08
150                      10                      10                5.656854    0.000520915115704927     0.00102424003420616     0.00123854103923672
151                      10                      10                2.828427    2.78071668135168e-06    5.14009437152123e-06    9.45163678450985e-06
152                      10                      10                       0    3.43656886817223e-07    6.03784766467502e-07    1.45953750191562e-06
153                      12                       8                5.656854    1.37643291957886e-05    6.20908123715987e-05    5.33936610820522e-05
154                      12                       8                2.828427    3.27299914322139e-06    1.39132636379926e-05    1.84358889264105e-05
155                      12                       8                       0    1.57871650375341e-08    6.33972773154917e-08    1.11740942252501e-07
156                      14                      10                5.656854    0.000195837365636165     0.00261710159882552     0.00347403107430554
157                      14                      10                2.828427    1.16552666070417e-06    1.12507551657835e-05    2.21328532720769e-05
158                      14                      10                       0    1.55809921023306e-07    1.20961664243389e-06    3.06898352520757e-06
159                      16                       8                5.656854   -1.01225831563982e-07    8.91967819397635e-05    7.85039019641556e-05
160                      16                       8                2.828427   -2.33458112835849e-08     1.9411485162464e-05    2.62685665459452e-05
161                      16                       8                       0   -1.09310779434193e-10    8.67375339072209e-08    1.55563415313903e-07
162                      18                      10                5.656854   -0.000203211848916486     0.00260764223421895     0.00345813767115661
163                      18                      10                2.828427   -1.19652160066672e-06    1.12169188052305e-05    2.20488651132417e-05
164                      18                      10                       0   -1.59173954112638e-07    1.20644724779776e-06    3.05895264867717e-06
165                      20                       8                5.656854   -1.37873379942893e-05    6.13995375032689e-05    5.27427550845583e-05
166                      20                       8                2.828427   -3.28324746176634e-06    1.37906831499344e-05    1.82565863995845e-05
167                      20                       8                       0   -1.58513858159326e-08    6.29390221017585e-08    1.10843160723219e-07
168                      22                      10                5.656854   -0.000515968092780442     0.00100765487777809     0.00121595872452698
169                      22                      10                2.828427   -2.76359833196417e-06    5.07530108068687e-06    9.31675843244152e-06
170                      22                      10                       0    -3.4225156161369e-07    5.97582501511509e-07    1.44250000047906e-06
171                      24                       8                5.656854   -6.16612440593732e-06    1.01346738421383e-05    8.08914525469513e-06
172                      24                       8                2.828427   -1.93121964890999e-06    3.06505217870474e-06    3.83901398179653e-06
173                      24                       8                       0    -1.0920782136448e-08    1.70543476342047e-08    2.88472397251164e-08
174                      26                      10                5.656854   -6.81335119876143e-05    5.78241462976089e-05     6.4274977122574e-05
175                      26                      10                2.828427   -5.91382796977138e-07    4.97311141491954e-07    8.56054614090267e-07
176                      26                      10                       0   -1.00810259120555e-07     8.4148565125215e-08    1.93933066531078e-07
177                      28                       8                5.656854   -3.54592514258177e-07    3.13915535522771e-07    2.39503060619882e-07
178                      28                       8                2.828427   -1.76524394546158e-07    1.55733739544075e-07    1.87832227839695e-07
179                      28                       8                       0   -1.36184643947473e-09    1.18692230508491e-09     1.9894419830227e-09
180                      30                      10                5.656854   -1.17487607077959e-06    6.00761068343905e-07    6.33990129804537e-07
181                      30                      10                2.828427   -1.98844549728881e-08    1.03225399515448e-08    1.70574017681034e-08
182                      30                      10                       0    -4.3780327888387e-09    2.27321935803796e-09    5.27907318669464e-09
183                       0                      12                5.656854    1.69852553082301e-09    2.55679090256395e-08    4.17371996742597e-08
184                       0                      12                2.828427    9.76585938503796e-10    1.69110054390571e-08    4.31116830193263e-08
185                       0                      12                       0    2.93125380180434e-12    4.14496239580521e-11    2.39504557465174e-10
186                       2                      14                5.656854    6.50543559797273e-06    9.64304868665445e-07    3.52050647286347e-06
187                       2                      14                2.828427    9.28874329065725e-08    1.45317028858405e-08    7.97855787433455e-08
188                       2                      14                       0    2.10994480761993e-08    3.38184802877845e-09    2.50056809013792e-08
189                       4                      12                5.656854    6.57037233759068e-06    2.55570208288194e-06     4.5521543799252e-06
190                       4                      12                2.828427     2.1551679061859e-06    8.70508838523071e-07    2.34224632092333e-06
191                       4                      12                       0    1.26579184002537e-08    5.23734319340716e-09    1.86473509052398e-08
192                       6                      14                5.656854    0.000611849601665439    0.000136569781589059    0.000593064871658108
193                       6                      14                2.828427    3.52120082570219e-06    8.72458962702566e-07    5.24716416362831e-06
194                       6                      14                       0    4.49106330238492e-07    1.17218083850471e-07    8.84129291225125e-07
195                       8                      12                5.656854    0.000209555705898722    0.000163469163085356    0.000319999623818879
196                       8                      12                2.828427    3.01728125558063e-05    2.32045516091501e-05    6.67317923201981e-05
197                       8                      12                       0    1.05398103905211e-07    7.99860777382077e-08    2.96586446489081e-07
198                      10                      14                5.656854     0.00467528865738424      0.0028561456163276      0.0140367287677519
199                      10                      14                2.828427    1.57059486950849e-05    9.39492506149477e-06    6.27741172640403e-05
200                      10                      14                       0    1.41770383495185e-06    8.21559638795684e-07    6.68099778832171e-06
201                      12                      12                5.656854    0.000361079682325526    0.000936765059861108     0.00215064722370374