ITEM: TIMESTEP
0
ITEM: NUMBER OF ATOMS
422
ITEM: BOX BOUNDS ff ff ff
0.0000000000000000e+00 2.3200000000000000e+02
0.0000000000000000e+00 2.3200000000000000e+02
0.0000000000000000e+00 2.3200000000000000e+02
ITEM: ATOMS id xu yu zu fx fy fz
1        113.156707382082        115.994296003921        108.667629188244      -0.828744997099061       -1.69654119955212       -0.36706428761491
2        118.847103751077         116.00884515264        108.676472911006       -1.59981564665194       -2.15285612342439      -0.250473537556654
3         117.39392170155        115.979371820398        108.648430707633        1.05726601706095       0.367058225981631       0.249516098212946
4        114.583366557341        115.997246461327        108.669148518392      -0.969707121556684      -0.582265163015672      -0.142097447716995
5        116.683979066742        114.732628749137        108.639757898973        1.37227456479482        1.01787231067566        0.27524791089714
6        115.272597674004        114.746063291848        108.654624683136       -1.86442150214195       -1.81766891986735       -0.39738247038588
7        115.276175668999        117.226856009359        108.660687803971        1.07020897279019         1.4289771293424       0.331981713352378
8        116.703700419413        117.229564824574        108.661964377992      -0.817446083949728      -0.969136999971943      -0.173743643641878
9        114.472186810517        113.502876130935        108.611283889759        1.46001211478509        2.22564461267618       0.223052450154331
10        117.460059909738        113.550907830893        108.656360427007      -0.325502644408331      -0.946025123374478      -0.202613569219201
11        114.553061295696        118.461543396816        108.697051744923       -1.32732815126804       -1.21264196576912       -0.16814300596283
12        117.454511598099        118.423152301623        108.655705487444       -1.78150101123896       -1.58680617689777      -0.356536542250478
13        113.078146011131        113.513279338793        108.607688750896        3.59386284677699         5.0547120033806       0.348040187051404
14        113.149380624954        118.431486579115         108.68378581684       -1.88946890867553       -2.56625159801507      -0.546045086466285
15        118.862854972506         113.58007903991        108.668740746338       0.691686483183644          1.643643386472       0.338380673436012
16        118.796873610166         118.36107030925         108.60762183867        4.63021893693541        5.18657015173529       0.809336682372141
17        112.395379078698        117.162903184199        108.625437240559        4.29205841264137        4.39011836785273       0.650049539332703
18        112.432228999511        114.774279755834        108.659853940771       -0.38374995669908       -1.51504430880618      -0.376967890279557
19        119.586487409244        114.818293324824        108.696720212552       -2.84763608484122       -2.29629408424208      -0.419441582978282
20        119.523324588992        117.180603856923        108.635990613964        2.22167215560943        2.03289379908814       0.458874984726449
21        120.964797038219        114.834097101417        108.666516015595        1.38853574799918        1.07297645871201       0.329922883195761
22         120.97795629855        117.183453165875        108.682018936299       -5.72752387456176       -6.35851391395718       -0.51172651293041
23        111.029406263928        114.823239420259        108.665634590767         1.2564879532519        1.92956984499355       0.407089295442042
24        111.009062883403        117.139092842531        108.647634870258        2.61731032055233        3.18869461619814       0.249023096342488
25        121.609090194899        116.014360812277        108.679217734159       0.399186554259736      -0.714237032518775      0.0325861290921125
26        110.427745232794        116.021804636986        108.697908658322       -3.94858156354496       -3.86061972810109      -0.299697662873459
27        121.566809576989        118.143535672091        108.614467531165        3.42852076375675        5.36461724959165     -0.0447319738782482
28        121.601381272027        113.785900555021        108.644632985326      0.0946050285623128         0.6630417560992      0.0100400452346637
29        110.382371611567        118.197182348136         108.67941086084      -0.404263016819164       -1.18011867685873     -0.0980909619095741
30        110.381120655131          113.8037245816        108.673753664871      -0.969794744072791      -0.328825143962963    -0.00980375779279224
31        112.649124024518        112.664712002368        108.706111202275       -2.49105020645334       -3.26463327355539       0.023721762098036
32        112.584643245407        119.342023066017        108.648393744807       0.194364279039964       0.567980448380759       0.143872293459972
33        119.427572441869        112.669522643548        108.704112908917      -0.233637563971371      -0.605716178714528      -0.109377755186193
34        119.415412101757        119.399154155003        108.698715894614        -2.2126445602888       -3.24191629201047      -0.588426670709561
35        114.941611060676        112.548285051689         108.63617848781     -0.0531554946975885      -0.440675208858037       -0.06336440023795
36        115.002458986966        119.448756024425        108.703887878284      -0.546007819283834      -0.228767362493707      0.0632372372264715
37        116.999059274666        112.552092260384        108.637921350645       0.512010056114255        0.61420938689981      0.0746548033096547
38         116.96699477683        119.359650809883        108.612718319299       0.941699744109811       0.816974725887287       0.107100974654431
39                     100                     100              105.656854                       0                       0                       0
40                     100                     100              102.828427                       0                       0                       0
41                     100                     100                     100                       0                       0                       0
42                     102                     102              105.656854                       0                       0                       0
43                     102                     102              102.828427                       0                       0                       0
44                     102                     102                     100                       0                       0                       0
45                     104                     100              105.656854                       0                       0                       0
46                     104                     100              102.828427                       0                       0                       0
47                     104                     100                     100                       0                       0                       0
48                     106                     102              105.656854                       0                       0                       0
49                     106                     102              102.828427                       0                       0                       0
50                     106                     102                     100                       0                       0                       0
51                     108                     100              105.656854                       0                       0                       0
52                     108                     100              102.828427                       0                       0                       0
53                     108                     100                     100                       0                       0                       0
54                     110                     102              105.656854                       0                       0                       0
55                     110                     102              102.828427                       0                       0                       0
56                     110                     102                     100                       0                       0                       0
57                     112                     100              105.656854                       0                       0                       0
58                     112                     100              102.828427                       0                       0                       0
59                     112                     100                     100                       0                       0                       0
60                     114                     102              105.656854                       0                       0                       0
61                     114                     102              102.828427                       0                       0                       0
62                     114                     102                     100                       0                       0                       0
63                     116                     100              105.656854                       0                       0                       0
64                     116                     100              102.828427                       0                       0                       0
65                     116                     100                     100                       0                       0                       0
66                     118                     102              105.656854                       0                       0                       0
67                     118                     102              102.828427                       0                       0                       0
68                     118                     102                     100                       0                       0                       0
69                     120                     100              105.656854                       0                       0                       0
70                     120                     100              102.828427                       0                       0                       0
71                     120                     100                     100                       0                       0                       0
72                     122                     102              105.656854                       0                       0                       0
73                     122                     102              102.828427                       0                       0                       0
74                     122                     102                     100                       0                       0                       0
75                     124                     100              105.656854                       0                       0                       0
76                     124                     100              102.828427                       0                       0                       0
77                     124                     100                     100                       0                       0                       0
78                     126                     102              105.656854                       0                       0                       0
79                     126                     102              102.828427                       0                       0                       0
80                     126                     102                     100                       0                       0                       0
81                     128                     100              105.656854                       0                       0                       0
82                     128                     100              102.828427                       0                       0                       0
83                     128                     100                     100                       0                       0                       0
84                     130                     102              105.656854                       0                       0                       0
85                     130                     102              102.828427                       0                       0                       0
86                     130                     102                     100                       0                       0                       0
87                     100                     104              105.656854                       0                       0                       0
88                     100                     104              102.828427                       0                       0                       0
89                     100                     104                     100                       0                       0                       0
90                     102                     106              105.656854                       0                       0                       0
91                     102                     106              102.828427                       0                       0                       0
92                     102                     106                     100                       0                       0                       0
93                     104                     104              105.656854                       0                       0                       0
94                     104                     104              102.828427                       0                       0                       0
95                     104                     104                     100                       0                       0                       0
96                     106                     106              105.656854                       0                       0                       0
97                     106                     106              102.828427                       0                       0                       0
98                     106                     106                     100                       0                       0                       0
99                     108                     104              105.656854                       0                       0                       0
100                     108                     104              102.828427                       0                       0                       0
101                     108                     104                     100                       0                       0                       0
102                     110                     106              105.656854                       0                       0                       0
103                     110                     106              102.828427                       0                       0                       0
104                     110                     106                     100                       0                       0                       0
105                     112                     104              105.656854                       0                       0                       0
106                     112                     104              102.828427                       0                       0                       0
107                     112                     104                     100                       0                       0                       0
108                     114                     106              105.656854                       0                       0                       0
109                     114                     106              102.828427                       0                       0                       0
110                     114                     106                     100                       0                       0                       0
111                     116                     104              105.656854                       0                       0                       0
112                     116                     104              102.828427                       0                       0                       0
113                     116                     104                     100                       0                       0                       0
114                     118                     106              105.656854                       0                       0                       0
115                     118                     106              102.828427                       0                       0                       0
116                     118                     106                     100                       0                       0                       0
117                     120                     104              105.656854                       0                       0                       0
118                     120                     104              102.828427                       0                       0                       0
119                     120                     104                     100                       0                       0                       0
120                     122                     106              105.656854                       0                       0                       0
121                     122                     106              102.828427                       0                       0                       0
122                     122                     106                     100                       0                       0                       0
123                     124                     104              105.656854                       0                       0                       0
124                     124                     104              102.828427                       0                       0                       0
125                     124                     104                     100                       0                       0                       0
126                     126                     106              105.656854                       0                       0                       0
127                     126                     106              102.828427                       0                       0                       0
128                     126                     106                     100                       0                       0                       0
129                     128                     104              105.656854                       0                       0                       0
130                     128                     104              102.828427                       0                       0                       0
131                     128                     104                     100                       0                       0                       0
132                     130                     106              105.656854                       0                       0                       0
133                     130                     106              102.828427                       0                       0                       0
134                     130                     106                     100                       0                       0                       0
135                     100                     108              105.656854                       0                       0                       0
136                     100                     108              102.828427                       0                       0                       0
137                     100                     108                     100                       0                       0                       0
138                     102                     110              105.656854                       0                       0                       0
139                     102                     110              102.828427                       0                       0                       0
140                     102                     110                     100                       0                       0                       0
141                     104                     108              105.656854                       0                       0                       0
142                     104                     108              102.828427                       0                       0                       0
143                     104                     108                     100                       0                       0                       0
144                     106                     110              105.656854                       0                       0                       0
145                     106                     110              102.828427                       0                       0                       0
146                     106                     110                     100                       0                       0                       0
147                     108                     108              105.656854                       0                       0                       0
148                     108                     108              102.828427                       0                       0                       0
149                     108                     108                     100                       0                       0                       0
150                     110                     110              105.656854                       0                       0                       0
151                     110                     110              102.828427                       0                       0                       0
152                     110                     110                     100                       0                       0                       0
153                     112                     108              105.656854                       0                       0                       0
154                     112                     108              102.828427                       0                       0                       0
155                     112                     108                     100                       0                       0                       0
156                     114                     110              105.656854                       0                       0                       0
157                     114                     110              102.828427                       0                       0                       0
158                     114                     110                     100                       0                       0                       0
159                     116                     108              105.656854                       0                       0                       0
160                     116                     108              102.828427                       0                       0                       0
161                     116                     108                     100                       0                       0                       0
162                     118                     110              105.656854                       0                       0                       0
163                     118                     110              102.828427                       0                       0                       0
164                     118                     110                     100                       0                       0                       0
165                     120                     108              105.656854                       0                       0                       0
166                     120                     108              102.828427                       0                       0                       0
167                     120                     108                     100                       0                       0                       0
168                     122                     110              105.656854                       0                       0                       0
169                     122                     110              102.828427                       0                       0                       0
170                     122                     110                     100                       0                       0                       0
171                     124                     108              105.656854                       0                       0                       0
172                     124                     108              102.828427                       0                       0                       0
173                     124                     108                     100                       0                       0                       0
174                     126                     110              105.656854                       0                       0                       0
175                     126                     110              102.828427                       0                       0                       0
176                     126                     110                     100                       0                       0                       0
177                     128                     108              105.656854                       0                       0                       0
178                     128                     108              102.828427                       0                       0                       0
179                     128                     108                     100                       0                       0                       0
180                     130                     110              105.656854                       0                       0                       0
181                     130                     110              102.828427                       0                       0                       0
182                     130                     110                     100                       0                       0                       0
183                     100                     112              105.656854                       0                       0                       0
184                     100                     112              102.828427                       0                       0                       0
185                     100                     112                     100                       0                       0                       0
186                     102                     114              105.656854                       0                       0                       0
187                     102                     114              102.828427                       0                       0                       0
188                     102                     114                     100                       0                       0                       0
189                     104                     112              105.656854                       0                       0                       0
190                     104                     112              102.828427                       0                       0                       0
191                     104                     112                     100                       0                       0                       0
192                     106                     114              105.656854                       0                       0                       0
193                     106                     114              102.828427                       0                       0                       0
194                     106                     114                     100                       0                       0                       0
195                     108                     112              105.656854                       0                       0                       0
196                     108                     112              102.828427                       0                       0                       0
197                     108                     112                     100                       0                       0                       0
198                     110                     114              105.656854                       0                       0                       0
199                     110                     114              102.828427                       0                       0                       0
200                     110                     114                     100                       0                       0                       0
201                     112                     112              105.656854                       0                       0                       0