ITEM: TIMESTEP
0
ITEM: NUMBER OF ATOMS
422
ITEM: BOX BOUNDS pp pp pp
0.0000000000000000e+00 3.2000000000000000e+01
0.0000000000000000e+00 3.2000000000000000e+01
0.0000000000000000e+00 3.2000000000000000e+01
ITEM: ATOMS id xu yu zu fx fy fz
1        14.3459321938386        15.9835208156773                 8.65685     0.00373472525353949    0.000806898981132102      0.0166833146226472
2        20.0274848400711        15.9892262416344                 8.65685   -0.000167840054593122    6.59581576599714e-05    -0.00440866654879591
3         18.602344993917         15.987795112765                 8.65685     0.00546346284699085    0.000513105017946559      0.0126548055289449
4         15.771072038949        15.9849519429358                 8.65685     0.00140914975771796    0.000111574470178708    -0.00393939781612196
5        17.9010751677692        14.7497248501637                 8.65685    -0.00533436506018584       0.040479413640537       0.137752836266918
6        16.4748269908674        14.7482926087119                 8.65685     -0.0169438016848457     0.00979604099523922      0.0238029254699929
7        16.4723418650276        17.2230222053877                 8.65685     -0.0164000404953926     -0.0098367074930474      0.0227101658800716
8        17.8985900414216        17.2244544465825                 8.65685     -0.0053328911154044     -0.0408279997077543       0.133929413925027
9        15.7177569207574        13.5484462411751                 8.65685      0.0129468609258788    -0.00562684547444373      0.0214481020901221
10        18.6605534827313        13.5514014038861                 8.65685      0.0342313327809618     -0.0232329075540286       0.131504365061913
11        15.7128635507729         18.421345651893                 8.65685      0.0133840135347454     0.00538066983764946      0.0222298097304721
12        18.6556601106552        18.4243008141789                 8.65685      0.0345744187341508       0.022358421961902       0.134101315103763
13        14.3273112602357        13.5624445878976                 8.65685      0.0209829052859677     -0.0280624355582447       0.166877223681234
14        14.3224488081137        18.4045547622743                 8.65685      0.0210791159564465      0.0264549168364619       0.170521097589019
15         20.050968226168        13.5681922935721                 8.65685    -0.00239291462982865    -0.00447491460567974      0.0156905037041427
16        20.0461057714963        18.4103024705805                 8.65685    -0.00218941885482598     0.00430146210284746      0.0159683089437578
17         13.626795838139        17.1943199436399                 8.65685     -0.0175733844228405     -0.0379476458065059       0.118150417605848
18        13.6292290587396        14.7712798150634                 8.65685     -0.0180849027150136      0.0376418241921353       0.122957915166547
19        20.7466211966922        14.7784271122721                 8.65685      -0.023979836594234      0.0153663958819351      0.0418044169608232
20        20.7441879750283        17.2014672429596                 8.65685     -0.0234485226920601     -0.0153856386653947      0.0405421045453044
21        22.1551350226241        14.8244350858224                 8.65685     0.00770034116819827      0.0409408056123804       0.125486307798094
22        22.1527913622507        17.1582882295758                 8.65685     0.00745155481820516     -0.0410577471762452       0.123012822515744
23        12.2206256731611        14.8144588294926                 8.65685    -0.00760375049489155     0.00681827203981187      0.0114391767166077
24        12.2182820131454        17.1483119722736                 8.65685    -0.00723024246045654    -0.00680243100993681       0.010543473648754
25        22.7867264607395        15.9919970781177                 8.65685     0.00205042926130784    0.000113658334499251    -0.00478279787951062
26        11.5866905744716        15.9807499786644                 8.65685    0.000786008557321705    6.82748349983044e-05    -0.00945193910293927
27         22.809196045824        18.1859221409264                 8.65685      0.0167293601228286     0.00381497706953176      0.0450042039215698
28        22.8136022867001        13.7981215696947                 8.65685      0.0166756889556518    -0.00410679823538036      0.0444949499242204
29        11.5598147507275        18.1746254872963                 8.65685     0.00896013990417821     0.00117292563666259     0.00606219911800548
30        11.5642209902605        13.7868249167297                 8.65685     0.00879094429720922    -0.00140629706106959     0.00573652127457519
31        13.7998668222426        12.6154548000933                 8.65685   -0.000398002021496884    -0.00311161619494181    -0.00434962959597684
32        13.7931035005993        19.3504833212092                 8.65685   -0.000443574972898157     0.00325469028255517    -0.00391563182498648
33        20.5803135329519        12.6222637346313                 8.65685   -0.000562272505736211   -0.000528213508226463    -0.00925021201753174
34        20.5735502071424         19.357292260389                 8.65685   -0.000592159997118824    0.000534968905749275    -0.00921026629498085
35        16.1622865728669        12.5689605638796                 8.65685    -0.00011886454725034   -1.40704298154674e-05      -0.010112695996002
36         16.155425108682        19.4017221461408                 8.65685   -0.000128095303302595    1.84668416414546e-05     -0.0100891271534386
37        18.2179919240215        12.5710249097393                 8.65685    0.000388189930051747    -0.00289353007958336    -0.00493398894694713
38         18.211130457531        19.4037864905846                 8.65685    0.000400069512869724     0.00301491767736379    -0.00461385715220285
39                       0                       0                5.656854                       0                       0                       0
40                       0                       0                2.828427                       0                       0                       0
41                       0                       0                       0                       0                       0                       0
42                       2                       2                5.656854                       0                       0                       0
43                       2                       2                2.828427                       0                       0                       0
44                       2                       2                       0                       0                       0                       0
45                       4                       0                5.656854                       0                       0                       0
46                       4                       0                2.828427                       0                       0                       0
47                       4                       0                       0                       0                       0                       0
48                       6                       2                5.656854    7.79772389310397e-09    1.37156342699943e-08    3.54301995620032e-09
49                       6                       2                2.828427    2.25283400241331e-10    4.11876181039528e-10     2.1007468920781e-10
50                       6                       2                       0                       0                       0                       0
51                       8                       0                5.656854    2.84224804296583e-10    1.90885567321935e-11    1.83628007701142e-10
52                       8                       0                2.828427                       0                       0                       0
53                       8                       0                       0                       0                       0                       0
54                      10                       2                5.656854    5.84692755047661e-08    1.79734346419381e-07    4.71887957639542e-08
55                      10                       2                2.828427    2.15965577390821e-09    6.67762417714915e-09     3.4086673397686e-09
56                      10                       2                       0    5.88761901393091e-10    2.01271847821753e-09    1.57339796481619e-09
57                      12                       0                5.656854    1.29707701229831e-09    1.54321663367714e-10    1.57160360483042e-09
58                      12                       0                2.828427    1.24134357376201e-09    7.91522109797479e-10    3.22695908391872e-09
59                      12                       0                       0                       0                       0                       0
60                      14                       2                5.656854      7.171857688219e-08    6.31552006609125e-07    1.69091734115881e-07
61                      14                       2                2.828427    2.59777655791155e-09    2.22147321393408e-08       1.15175480872e-08
62                      14                       2                       0    8.02240590910043e-10    9.17485714719818e-09    7.16518574973248e-09
63                      16                       0                5.656854    5.10805583335096e-10    2.88784536370767e-10    3.24645197797066e-09
64                      16                       0                2.828427    2.99043406744072e-10    1.39505600883883e-09    7.60065147316421e-09
65                      16                       0                       0                       0                       0                       0
66                      18                       2                5.656854   -2.07415197100775e-08    7.95239259806387e-07    2.13676688470162e-07
67                      18                       2                2.828427   -7.10804440454438e-10    2.76978622247551e-08    1.44170636497991e-08
68                      18                       2                       0   -4.62401753006761e-10    1.25875636167915e-08    9.84030504857042e-09
69                      20                       0                5.656854   -1.02139470473954e-09    2.04537670071561e-10    2.68999079741739e-09
70                      20                       0                2.828427    -1.0409720757242e-09    2.24029865559057e-10    6.22810430588641e-09
71                      20                       0                       0                       0                       0                       0
72                      22                       2                5.656854   -8.51444492030031e-08    4.37548344212471e-07    1.16275383554412e-07
73                      22                       2                2.828427   -2.96832066073503e-09    1.54267677548472e-08    7.96028071370751e-09
74                      22                       2                       0   -1.34000786848149e-09    6.95019259983196e-09    5.39797683977594e-09
75                      24                       0                5.656854   -1.04066295757827e-09    5.97759634221915e-11    8.74312552495668e-10
76                      24                       0                2.828427   -4.84908262703503e-10    2.61385191493787e-11    8.25660900026828e-10
77                      24                       0                       0                       0                       0                       0
78                      26                       2                5.656854    -3.1458344038663e-08    7.46751083175848e-08    1.94173867668264e-08
79                      26                       2                2.828427   -1.26326537990284e-09    2.98298261721542e-09    1.50612566576917e-09
80                      26                       2                       0   -3.53044067580133e-10     9.5491830380249e-10    7.32849949290486e-10
81                      28                       0                5.656854   -6.91975393429321e-11    1.80732407275076e-12    2.79660465952008e-11
82                      28                       0                2.828427                       0                       0                       0
83                      28                       0                       0                       0                       0                       0
84                      30                       2                5.656854   -1.77085578555531e-09    2.65018467230828e-09    6.89755933211031e-10
85                      30                       2                2.828427   -5.84290942611015e-11    9.59247713251163e-11    4.73880642912815e-11
86                      30                       2                       0                       0                       0                       0
87                       0                       4                5.656854   -7.57080354802078e-10    7.84391111438748e-10    2.38193172036725e-10
88                       0                       4                2.828427   -7.35681428719257e-10    7.84670585807751e-10    4.66762129579074e-10
89                       0                       4                       0                       0                       0                       0
90                       2                       6                5.656854    2.47765287010051e-08    2.39280651427869e-08    8.91768534185472e-09
91                       2                       6                2.828427    8.37025626981538e-10    8.50278083674039e-10    6.25141964321307e-10
92                       2                       6                       0                       0                       0                       0
93                       4                       4                5.656854    4.03426089538261e-09    4.87868455803957e-09    1.47540261668645e-09
94                       4                       4                2.828427    4.41197265111738e-09    5.42346110070019e-09    3.21449749191901e-09
95                       4                       4                       0                       0                       0                       0
96                       6                       6                5.656854    1.34411785232747e-06    1.68893935646182e-06    6.37604238656875e-07
97                       6                       6                2.828427     4.0839729491181e-08    5.08656329455277e-08    3.70781367089851e-08
98                       6                       6                       0    1.69207985845383e-08    2.10031744314955e-08    2.27942942092484e-08
99                       8                       4                5.656854    7.27015970095711e-08    1.42291012951001e-07    4.40520032000362e-08
100                       8                       4                2.828427    7.82175389283295e-08    1.52040905727279e-07    9.11342337557005e-08
101                       8                       4                       0    1.05683261815189e-09    2.08555058266028e-09    1.86407201886839e-09
102                      10                       6                5.656854    1.49339192837588e-05    3.48362781337594e-05    1.37593086272918e-05
103                      10                       6                2.828427    3.35470519955063e-07    7.68598870565769e-07     5.8235327374399e-07
104                      10                       6                       0    1.08954599883295e-07     2.4469525518008e-07     2.7170518352049e-07
105                      12                       4                5.656854     2.6474382875189e-07    1.10460058759433e-06    3.54585729561684e-07
106                      12                       4                2.828427    2.42207618346063e-07     9.9552452928145e-07    6.15290709638332e-07
107                      12                       4                       0    2.96650162687177e-09    1.22959690315905e-08    1.12225491062006e-08
108                      14                       6                5.656854    2.05901905907264e-05    0.000156232742655251    6.45727445461463e-05
109                      14                       6                2.828427    4.03934341295502e-07    2.85960811379619e-06    2.25295910974585e-06
110                      14                       6                       0    1.17391217401261e-07    7.70712134477032e-07      8.833319179703e-07
111                      16                       4                5.656854    8.30525756792771e-08    2.27622554202078e-06    7.43008653310884e-07
112                      16                       4                2.828427    7.79776109573703e-08    1.94991157662753e-06    1.22417809870108e-06
113                      16                       4                       0    9.31274059557007e-10    2.30502275815837e-08    2.13329030972939e-08
114                      18                       6                5.656854   -4.51996185322564e-06    0.000194296777358237    8.10016333098001e-05
115                      18                       6                2.828427   -9.83049688626137e-08    3.52212240319026e-06    2.79843502261342e-06
116                      18                       6                       0   -3.08785105886365e-08    9.38527632063096e-07    1.08415028104498e-06
117                      20                       4                5.656854    -2.0284112609585e-07    1.94322478241624e-06    6.31509444863421e-07
118                      20                       4                2.828427   -1.84822373270983e-07    1.67647290647737e-06    1.04789255718143e-06
119                      20                       4                       0   -2.25633734302562e-09    1.99485541681805e-08    1.83842882138429e-08
120                      22                       6                5.656854   -2.51790197034849e-05     0.00010209344946733    4.16172979603105e-05
121                      22                       6                2.828427   -4.97561970329504e-07    1.96600752690968e-06    1.52902781723286e-06
122                      22                       6                       0   -1.44843077043269e-07    5.54273645087439e-07    6.28114586892635e-07
123                      24                       4                5.656854   -1.94216164260343e-07    5.61149614427209e-07     1.7760025120352e-07
124                      24                       4                2.828427   -1.88701951473952e-07     5.3918046243412e-07    3.28992433034269e-07
125                      24                       4                       0   -2.35456906434748e-09    6.88432454319816e-09    6.23696753552689e-09
126                      26                       6                5.656854   -6.83497255546196e-06    1.20897979980264e-05    4.66660757731739e-06
127                      26                       6                2.828427   -1.72543276255704e-07    2.99988240249204e-07     2.2302621544861e-07
128                      26                       6                       0   -6.20381310026697e-08    1.06114130953485e-07    1.16377650799261e-07
129                      28                       4                5.656854   -2.64512741433902e-08    4.17119657749273e-08    1.27593111964676e-08
130                      28                       4                2.828427   -3.09637895588762e-08    4.83875984414285e-08    2.87577650390365e-08
131                      28                       4                       0   -2.78398898706856e-10    4.55008988466297e-10    4.15671097281218e-10
132                      30                       6                5.656854   -3.20021980919461e-07    3.30601401548112e-07    1.23318040706882e-07
133                      30                       6                2.828427    -1.1028102329079e-08    1.13095739517163e-08    8.18714691614702e-09
134                      30                       6                       0   -4.23822664545993e-09    4.41667519201865e-09    4.82762154857298e-09
135                       0                       8                5.656854   -4.39387925407623e-08    3.13064545336858e-08    1.50017993188153e-08
136                       0                       8                2.828427   -5.02355997876682e-08    3.51644484414029e-08    3.25884707443893e-08
137                       0                       8                       0   -6.93842331445849e-10    4.68643397381527e-10    6.41481224551378e-10
138                       2                      10                5.656854    6.28294805694546e-07    3.52325709904424e-07    2.36354926071278e-07
139                       2                      10                2.828427    2.07480076816499e-08     1.1848811380906e-08    1.52451898209607e-08
140                       2                      10                       0    8.61656424438719e-09    4.53524830931683e-09    9.07216259371552e-09
141                       4                       8                5.656854    2.94692619528259e-07    2.27149377829453e-07     1.1036148742073e-07
142                       4                       8                2.828427    2.83472383051644e-07    2.18408034994839e-07    2.04051814981068e-07
143                       4                       8                       0     3.6115339326175e-09    2.74615640825846e-09    3.84682585334451e-09
144                       6                      10                5.656854    8.56591793184178e-05     6.0368817975854e-05    4.29095959039716e-05
145                       6                      10                2.828427    1.52636819283875e-06    1.07987101140567e-06    1.45000719956657e-06
146                       6                      10                       0    4.04731947819647e-07    2.87241682309259e-07    5.55363822972142e-07
147                       8                       8                5.656854    1.12323544574211e-05    1.52320771024521e-05     7.7001472937874e-06
148                       8                       8                2.828427    6.65998535371877e-06    8.80619513815991e-06    8.52338142268804e-06
149                       8                       8                       0    5.66286930177763e-08    7.30790437668979e-08    1.03189779472882e-07
150                      10                      10                5.656854     0.00188793064559185     0.00289902115320632     0.00220900081764152
151                      10                      10                2.828427    1.80246932503685e-05    2.61865579308713e-05    3.73491749811013e-05
152                      10                      10                       0    2.85675225048494e-06    3.94425531222719e-06    8.01178759563856e-06
153                      12                       8                5.656854    6.21666470725572e-05    0.000190872222382238    0.000104864212581866
154                      12                       8                2.828427    2.48815639037795e-05     7.4480478670646e-05    7.68200736241632e-05
155                      12                       8                       0    1.54944911298099e-07    4.45269686820014e-07    6.59716168688168e-07
156                      14                      10                5.656854      0.0024935922268215      0.0133622514509234      0.0114859797695005
157                      14                      10                2.828427    1.93240548731812e-05    9.89740472236767e-05    0.000155578323013024
158                      14                      10                       0    2.63382094882973e-06    1.19572949476479e-05    2.59976033309279e-05
159                      16                       8                5.656854    1.14466181208596e-05     0.00041797860257823    0.000239671439890448
160                      16                       8                2.828427    5.77034184505211e-06    0.000145359195263135    0.000155781851941615
161                      16                       8                       0    4.18865446348139e-08    8.00020180473105e-07    1.22364369767592e-06
162                      18                      10                5.656854   -0.000218775526947505      0.0155654633183386      0.0136892922062483
163                      18                      10                2.828427   -2.72865078515051e-06     0.00011488723972784    0.000184318966991424
164                      18                      10                       0   -5.70631630491141e-07    1.39546079013332e-05    3.08776900427352e-05
165                      20                       8                5.656854   -4.30346694236101e-05    0.000366907845179846    0.000208303658400436
166                      20                       8                2.828427   -1.70817104192895e-05    0.000127907005951427    0.000135795538579915
167                      20                       8                       0   -1.06588351282935e-07    7.06756565827497e-07    1.07179267832829e-06
168                      22                      10                5.656854    -0.00335690448930482     0.00918382628203596     0.00758097083894678
169                      22                      10                2.828427   -2.64107709054837e-05    6.97536777411834e-05    0.000105659159519649
170                      22                      10                       0     -3.583590210433e-06    8.90335086170828e-06    1.88508829206767e-05
171                      24                       8                5.656854   -3.97925559815064e-05    8.40359056634533e-05    4.43512111000816e-05
172                      24                       8                2.828427     -1.850389596213e-05    3.77682741321427e-05    3.78267308268784e-05
173                      24                       8                       0   -1.27852700466195e-07    2.51602688266093e-07     3.6468559723909e-07
174                      26                      10                5.656854   -0.000735950663098354    0.000790085492883344    0.000580890890471186
175                      26                      10                2.828427   -8.60194480182959e-06    8.97500842634244e-06    1.24139886664217e-05
176                      26                      10                       0   -1.61598697307907e-06    1.64260787255844e-06    3.25436115070785e-06
177                      28                       8                5.656854   -3.09204379446653e-06    3.23416670718833e-06     1.6028880480302e-06
178                      28                       8                2.828427   -2.23094578229645e-06    2.30699216819068e-06      2.193257949591e-06
179                      28                       8                       0    -2.2648781739021e-08    2.31853003128358e-08    3.22630299428828e-08
180                      30                      10                5.656854   -1.36228984178235e-05     7.7922628110228e-06      5.399096148623e-06
181                      30                      10                2.828427   -3.23125764121453e-07    1.86666889579624e-07    2.45508791225081e-07
182                      30                      10                       0   -1.11199798233669e-07    6.48721642121816e-08    1.23651228189847e-07
183                       0                      12                5.656854   -5.61977951774527e-07    1.74930058844715e-07    1.89344550566392e-07
184                       0                      12                2.828427   -5.20006951745659e-07    1.69349236775899e-07     3.4475178143123e-07
185                       0                      12                       0   -6.76142677974159e-09    2.13809206553348e-09    6.40964384987262e-09
186                       2                      14                5.656854    3.25522079302093e-06    5.19377628585629e-07    1.18974660910107e-06
187                       2                      14                2.828427    9.38251570108443e-08    1.62529672718523e-08    6.91155973922043e-08
188                       2                      14                       0     3.8242823897777e-08    6.97862052110856e-09    4.26692973213583e-08
189                       4                      12                5.656854    5.09766845292585e-06    1.70655030531739e-06     1.9343727511985e-06
190                       4                      12                2.828427    3.61713892992641e-06    1.25301098259301e-06    2.63720133613508e-06
191                       4                      12                       0    3.59685076345985e-08    1.28655100087351e-08    3.84176745666551e-08
192                       6                      14                5.656854    0.000774277405968592    0.000138093519281474    0.000391636670987027
193                       6                      14                2.828427    9.99165526765206e-06     1.9864818683137e-06    9.61151060012938e-06
194                       6                      14                       0    1.97134918008524e-06    4.23142533121322e-07    2.74090384352308e-06
195                       8                      12                5.656854    0.000533059424398415     0.00031321560856243    0.000400758421291326
196                       8                      12                2.828427    0.000145294354675456     8.7737494548239e-05    0.000200293394156458
197                       8                      12                       0    6.81605762556526e-07    4.16737839628374e-07    1.31374162109107e-06
198                      10                      14                5.656854     0.00254606999274302     0.00677113497258312    -0.00517591661083484
199                      10                      14                2.828427    0.000149625003778841    6.30686014956651e-05    0.000348708090281821
200                      10                      14                       0    1.48352897749654e-05    6.43931252363963e-06    4.52768716969513e-05
201                      12                      12                5.656854     0.00288144190785237      0.0045512810283268     0.00646234010159057