ITEM: TIMESTEP
0
ITEM: NUMBER OF ATOMS
422
ITEM: BOX BOUNDS pp pp pp
0.0000000000000000e+00 3.2000000000000000e+01
0.0000000000000000e+00 3.2000000000000000e+01
0.0000000000000000e+00 3.2000000000000000e+01
ITEM: ATOMS id xu yu zu fx fy fz
1        13.1459321938386        15.9835208156773                 9.75685    0.000178965977313178    1.29477097664255e-06     -0.0135806414548864
2        18.8274848400711        15.9892262416344                 9.75685   -0.000176216081750863    9.37021108371461e-07      -0.013574543448395
3         17.402344993917         15.987795112765                 9.75685    0.000141679383597937     2.5713028325991e-06     -0.0135210117016978
4         14.571072038949        15.9849519429358                 9.75685   -0.000136587065950766     3.3705945308854e-06     -0.0135150612170473
5        16.7010751677692        14.7497248501637                 9.75685   -0.000102396792267867   -4.74621969678013e-05     -0.0130332474973614
6        15.2748269908674        14.7482926087119                 9.75685    0.000106433242015147   -3.97397687789125e-05     -0.0129981279521654
7        15.2723418650276        17.2230222053877                 9.75685    9.75065591471425e-05    4.09931501062777e-05     -0.0130175821425274
8        16.6985900414216        17.2244544465825                 9.75685   -9.39189262658402e-05    5.02390669963187e-05     -0.0130563620479752
9        14.5177569207574        13.5484462411751                 9.75685    0.000203387874470932   -0.000172129073444063     -0.0112860077793874
10        17.4605534827313        13.5514014038861                 9.75685   -0.000209182186558465    -0.00016676726778321     -0.0113183566279729
11        14.5128635507729         18.421345651893                 9.75685    0.000208210003845695    0.000164572324695869     -0.0112352983097226
12        17.4556601106552        18.4243008141789                 9.75685   -0.000215466445302848    0.000159091760417299     -0.0112931822139316
13        13.1273112602358        13.5624445878976                 9.75685   -0.000247408952785633   -8.31114598878469e-05     -0.0119610558301432
14        13.1224488081137        18.4045547622743                 9.75685   -0.000255736516960703     7.7478789055091e-05     -0.0119385234488734
15         18.850968226168        13.5681922935721                 9.75685    0.000249149288650554   -8.79586104876837e-05     -0.0119089602963576
16        18.8461057714963        18.4103024705805                 9.75685    0.000254578837716901    8.60326292479174e-05     -0.0118764684711239
17         12.426795838139        17.1943199436399                 9.75685   -4.85641664127144e-05    0.000126372585799117     -0.0133794795916106
18        12.4292290587396        14.7712798150634                 9.75685   -5.63042245750218e-05   -0.000122234816458594     -0.0133619986879149
19        19.5466211966922        14.7784271122721                 9.75685    5.81411260174289e-05   -0.000117546182901152     -0.0133428448986085
20        19.5441879750283        17.2014672429596                 9.75685    5.39301993143192e-05    0.000119284107475692     -0.0133500313771172
21        20.9551350226241        14.8244350858224                 9.75685   -0.000107104980908234    3.64709905897241e-05     -0.0127292452703814
22        20.9527913622507        17.1582882295758                 9.75685   -0.000100455102503939   -3.52893142042567e-05     -0.0127530632214224
23        11.0206256731611        14.8144588294926                 9.75685    0.000113020091176666    4.63395925340142e-05     -0.0126800604356362
24        11.0182820131454        17.1483119722736                 9.75685    9.91154656034239e-05   -4.54712267953561e-05     -0.0127218411179139
25        21.5867264607395        15.9919970781177                 9.75685    0.000104602113199912   -6.16061271710711e-07    -0.00853953495236534
26        10.3866905744716        15.9807499786644                 9.75685   -9.86233051728517e-05   -1.89302483191446e-06    -0.00854007596180328
27         21.609196045824        18.1859221409264                 9.75685   -4.88011202254279e-07   -2.48201056471387e-06    -0.00771316582725047
28        21.6136022867001        13.7981215696947                 9.75685   -2.32892005524911e-07     2.8040762978348e-06    -0.00771481010651764
29        10.3598147507275        18.1746254872963                 9.75685    1.17682757719376e-06   -1.61843433740823e-06    -0.00769622150723749
30        10.3642209902605        13.7868249167297                 9.75685    1.04867465389732e-07    2.26120790778788e-06    -0.00770740254485511
31        12.5998668222426        12.6154548000933                 9.75685    0.000118072752392701    0.000120110568404767    -0.00497235235153978
32        12.5931035005993        19.3504833212092                 9.75685    0.000117179246267085   -0.000124244452513467    -0.00497595107904143
33        19.3803135329519        12.6222637346313                 9.75685   -0.000120586022789367    0.000120981148573785    -0.00497571726560411
34        19.3735502071424         19.357292260389                 9.75685   -0.000121457871218575   -0.000123481356267358    -0.00497919621285352
35        14.9622865728669        12.5689605638796                 9.75685    -0.00014351315129546     0.00011381904481228     -0.0050296579185951
36         14.955425108682        19.4017221461408                 9.75685   -0.000143360952487515    -0.00011772611266414    -0.00503326433991729
37        17.0179919240215        12.5710249097393                 9.75685    0.000143839613689578    0.000114118563986271    -0.00502691863079814
38         17.011130457531        19.4037864905846                 9.75685    0.000143856842836465   -0.000117509447321668    -0.00502820196033945
39                       0                       0                5.656854                       0                       0                       0
40                       0                       0                2.828427                       0                       0                       0
41                       0                       0                       0                       0                       0                       0
42                       2                       2                5.656854                       0                       0                       0
43                       2                       2                2.828427                       0                       0                       0
44                       2                       2                       0                       0                       0                       0
45                       4                       0                5.656854                       0                       0                       0
46                       4                       0                2.828427                       0                       0                       0
47                       4                       0                       0                       0                       0                       0
48                       6                       2                5.656854    1.11791392118321e-08     2.2401424737448e-08    7.91924879984512e-09
49                       6                       2                2.828427    1.84266709692786e-10    4.02411117937915e-10    2.45638984093264e-10
50                       6                       2                       0                       0                       0                       0
51                       8                       0                5.656854    3.13473945840678e-10    2.31960680193454e-11    3.20490015601192e-10
52                       8                       0                2.828427                       0                       0                       0
53                       8                       0                       0                       0                       0                       0
54                      10                       2                5.656854    4.65541919423399e-08    1.80781890570337e-07    6.52246318560781e-08
55                      10                       2                2.828427    1.14873799696993e-09    4.62074160159216e-09    2.81904644755424e-09
56                      10                       2                       0    1.10828139264003e-10    4.52519757116106e-10    4.15918816043518e-10
57                      12                       0                5.656854    7.14223820480893e-10    1.27310977725581e-10    1.81791081191889e-09
58                      12                       0                2.828427     3.1920428459736e-10    5.20769999504266e-11    1.42480182482582e-09
59                      12                       0                       0                       0                       0                       0
60                      14                       2                5.656854    2.88664566554779e-08    4.39555534096849e-07    1.60825626836038e-07
61                      14                       2                2.828427    7.18992823321086e-10      1.102579575561e-08    6.80131719659001e-09
62                      14                       2                       0    1.01318222789165e-10    1.65485743156837e-09    1.52525506023988e-09
63                      16                       0                5.656854   -4.57517441124246e-12    1.75033102510404e-10     2.8791696205482e-09
64                      16                       0                2.828427   -2.60799610084801e-12    8.49812509389106e-11    2.67972452684753e-09
65                      16                       0                       0                       0                       0                       0
66                      18                       2                5.656854   -2.95621530921344e-08    4.37141914079036e-07    1.59907354434252e-07
67                      18                       2                2.828427   -7.36787041782801e-10    1.09712726698936e-08    6.76622037980563e-09
68                      18                       2                       0   -1.04021184277798e-10    1.64785974589479e-09    1.51841975630649e-09
69                      20                       0                5.656854   -7.19133681520144e-10    9.37277690048931e-11    1.80885258433625e-09
70                      20                       0                2.828427   -3.22407071651683e-10    3.84770209624071e-11    1.41831452914589e-09
71                      20                       0                       0                       0                       0                       0
72                      22                       2                5.656854   -4.61413477000565e-08    1.77879843944646e-07    6.41446793462533e-08
73                      22                       2                2.828427   -1.14041364593435e-09    4.55332845976522e-09    2.77646367482759e-09
74                      22                       2                       0   -1.10200650689859e-10    4.46839875717905e-10    4.10435077711763e-10
75                      24                       0                5.656854   -3.11340349565191e-10    1.43684901857987e-11    3.16712950463568e-10
76                      24                       0                2.828427                       0                       0                       0
77                      24                       0                       0                       0                       0                       0
78                      26                       2                5.656854   -1.09395421002415e-08    2.18447983610039e-08    7.71739861359219e-09
79                      26                       2                2.828427   -1.80666421537704e-10    3.93132555273938e-10    2.39788388550715e-10
80                      26                       2                       0                       0                       0                       0
81                      28                       0                5.656854                       0                       0                       0
82                      28                       0                2.828427                       0                       0                       0
83                      28                       0                       0                       0                       0                       0
84                      30                       2                5.656854                       0                       0                       0
85                      30                       2                2.828427                       0                       0                       0
86                      30                       2                       0                       0                       0                       0
87                       0                       4                5.656854    3.60816848407999e-12    2.01304126296617e-10     8.4284598432455e-11
88                       0                       4                2.828427                       0                       0                       0
89                       0                       4                       0                       0                       0                       0
90                       2                       6                5.656854    6.04458048624219e-08     5.5161901252441e-08    2.79877737826292e-08
91                       2                       6                2.828427    1.44349261705774e-09    1.34094926670128e-09    1.15123824701073e-09
92                       2                       6                       0                       0                       0                       0
93                       4                       4                5.656854     6.9157959613916e-09    9.42346447020799e-09    3.92132791543487e-09
94                       4                       4                2.828427    5.50737956690166e-09    7.53642071617323e-09    5.34555383197822e-09
95                       4                       4                       0                       0                       0                       0
96                       6                       6                5.656854    1.80083543246918e-06    2.65430702293145e-06    1.38032695111179e-06
97                       6                       6                2.828427    3.51270071213321e-08    5.10485131624949e-08    4.44861454579535e-08
98                       6                       6                       0    1.06912584812746e-08    1.52546960944915e-08    1.88029487241218e-08
99                       8                       4                5.656854    7.39153436930305e-08    1.73264104688596e-07    7.39761022347501e-08
100                       8                       4                2.828427     5.2706772183108e-08    1.22871693767954e-07    8.83295124390596e-08
101                       8                       4                       0    4.50568873272791e-10    1.10087712717532e-09     1.1272664684058e-09
102                      10                       6                5.656854    1.06285088765225e-05    3.15191557956271e-05    1.72178585193201e-05
103                      10                       6                2.828427    1.55047092763536e-07    4.50181697356619e-07    4.08400224896362e-07
104                      10                       6                       0    3.73912209539035e-08    1.07022141208241e-07    1.34943015109382e-07
105                      12                       4                5.656854    1.42736298722024e-07    8.48012913482138e-07    3.73579629410732e-07
106                      12                       4                2.828427    9.08604349218529e-08    5.24062543331381e-07    3.86005081292003e-07
107                      12                       4                       0    8.00253728813411e-10    4.77420041905205e-09    4.95690728833061e-09
108                      14                       6                5.656854    5.90607164510575e-06    8.53770766302714e-05    4.81799361996196e-05
109                      14                       6                2.828427    8.53130919716146e-08    1.07932985049282e-06    1.00792191072145e-06
110                      14                       6                       0    2.09383683726631e-08    2.34871898374074e-07    3.03146239391618e-07
111                      16                       4                5.656854   -1.31552917468061e-09    1.26137133650358e-06    5.61304432377372e-07
112                      16                       4                2.828427   -7.98261771540669e-10    7.61722013406905e-07    5.66432533364068e-07
113                      16                       4                       0   -7.31849167148693e-12    6.91203846651567e-09    7.23549326512811e-09
114                      18                       6                5.656854   -6.06989762599744e-06    8.48949980594383e-05    4.78875345914937e-05
115                      18                       6                2.828427   -8.74098991811402e-08    1.07420482863793e-06    1.00275557263411e-06
116                      18                       6                       0   -2.14033301917826e-08    2.33933505743986e-07    3.01832294084736e-07
117                      20                       4                5.656854   -1.42900700454216e-07    8.38316076302681e-07    3.69114482025897e-07
118                      20                       4                2.828427   -9.10603074709185e-08     5.1882058429284e-07    3.81956720759387e-07
119                      20                       4                       0   -8.03572413072231e-10    4.73350084965383e-09    4.91218662031695e-09
120                      22                       6                5.656854   -1.05133456481718e-05    3.09552466554284e-05    1.68939500337508e-05
121                      22                       6                2.828427   -1.53774362329767e-07    4.43374335583788e-07    4.01881820115724e-07
122                      22                       6                       0   -3.71729858765702e-08     1.0566596697661e-07    1.33126197145107e-07
123                      24                       4                5.656854   -7.26350781926667e-08    1.69438977944041e-07    7.22877167517981e-08
124                      24                       4                2.828427   -5.19181903518929e-08    1.20457849146759e-07    8.65299541912919e-08
125                      24                       4                       0   -4.45105775183169e-10    1.08219425818657e-09    1.10724183196583e-09
126                      26                       6                5.656854   -1.75620682477036e-06    2.57989794652493e-06    1.34017573709138e-06
127                      26                       6                2.828427   -3.43769431342932e-08    4.97966296221494e-08    4.33509797656408e-08
128                      26                       6                       0   -9.83398312778519e-09    1.43460571035612e-08    1.76292093788923e-08
129                      28                       4                5.656854   -6.72610115148181e-09    9.14223120592724e-09     3.8009819870284e-09
130                      28                       4                2.828427    -5.3703938258577e-09    7.33155115714934e-09    5.19547890848198e-09
131                      28                       4                       0                       0                       0                       0
132                      30                       6                5.656854   -5.84991299403133e-08     5.3302417737266e-08      2.701356752519e-08
133                      30                       6                2.828427   -1.40123390225042e-09    1.29972975758916e-09    1.11453716904133e-09
134                      30                       6                       0                       0                       0                       0
135                       0                       8                5.656854    2.38472091031634e-10    7.83461165573279e-09     5.1174603714853e-09
136                       0                       8                2.828427    1.74346813822762e-10    6.38356960897428e-09    7.01660296086483e-09
137                       0                       8                       0                       0                       0                       0
138                       2                      10                5.656854    1.79517379960337e-06    9.15197617256101e-07    8.47706414750689e-07
139                       2                      10                2.828427    3.60656484060887e-08    1.85811398937919e-08    2.84955043281503e-08
140                       2                      10                       0    9.31253205650234e-09    4.70138975522571e-09    1.05118533384268e-08
141                       4                       8                5.656854    5.50332502324707e-07    4.88575487215032e-07     3.2645862599454e-07
142                       4                       8                2.828427    3.24015514324845e-07    2.86269131636272e-07    3.18969346032485e-07
143                       4                       8                       0    2.76405227801328e-09    2.41703661764828e-09    3.82803803906318e-09
144                       6                      10                5.656854    0.000119975462749131    0.000102259929078713    0.000100026610059409
145                       6                      10                2.828427    1.20537050307571e-06    1.01833789075381e-06     1.6278695388737e-06
146                       6                      10                       0    2.22330178322941e-07    1.86489377484503e-07    4.07002613394074e-07
147                       8                       8                5.656854    1.04719215665911e-05    1.74228497658812e-05    1.21945385600953e-05
148                       8                       8                2.828427     3.8279589640096e-06    6.14639246708661e-06    7.12696122027788e-06
149                       8                       8                       0    2.39382995793597e-08    3.73446761104113e-08    5.98277006686415e-08
150                      10                      10                5.656854     0.00100303977924064     0.00199504884527116     0.00212734956091442
151                      10                      10                2.828427    6.06638082685011e-06    1.13552240958941e-05    1.94224438700078e-05
152                      10                      10                       0    7.86326662157024e-07     1.3949737308747e-06     3.2046841784068e-06
153                      12                       8                5.656854    2.45662802372593e-05    0.000112030154048077    8.47358149814184e-05
154                      12                       8                2.828427    6.71121026740984e-06    2.89182427202083e-05    3.55469616675251e-05
155                      12                       8                       0    3.48390521143606e-08    1.40951711664119e-07    2.35579711027401e-07
156                      14                      10                5.656854    0.000368483702577229     0.00527732042176186     0.00620896297709632
157                      14                      10                2.828427    2.49028454481588e-06    2.55261410174143e-05    4.69434080843937e-05
158                      14                      10                       0     3.5166309731206e-07    2.83611612840738e-06    6.86344852852663e-06
159                      16                       8                5.656854   -1.81674051835359e-07    0.000162058237185038    0.000125485354713939
160                      16                       8                2.828427   -4.82355920410181e-08    4.05715969660309e-05    5.09614323988871e-05
161                      16                       8                       0   -2.41445640845998e-10    1.93271257481573e-07    3.29045391262158e-07
162                      18                      10                5.656854   -0.000383440110431923     0.00525771916742513     0.00617975567230729
163                      18                      10                2.828427    -2.5607671915026e-06    2.54465584758163e-05    4.67584572537456e-05
164                      18                      10                       0   -3.59513602775698e-07    2.82848604160658e-06    6.84036134818443e-06
165                      20                       8                5.656854   -2.45973436912021e-05    0.000110716802790784    8.36502077073772e-05
166                      20                       8                2.828427   -6.73063450568349e-06    2.86513167223011e-05    3.51852894042906e-05
167                      20                       8                       0   -3.49719826265512e-08    1.39891276254635e-07    2.33613144404292e-07
168                      22                      10                5.656854   -0.000992681476194975     0.00196110068430584     0.00208663658919434
169                      22                      10                2.828427   -6.02547596567891e-06    1.12047129432571e-05    1.91312841066297e-05
170                      22                      10                       0   -7.82822865822317e-07    1.38006181666204e-06    3.16579277076984e-06
171                      24                       8                5.656854   -1.02638921631117e-05    1.69961737483105e-05    1.18783535719945e-05
172                      24                       8                2.828427   -3.76802812763934e-06    6.02318025483004e-06    6.97495301666968e-06
173                      24                       8                       0    -2.3644326407499e-08    3.67272493227181e-08    5.87689664390242e-08
174                      26                      10                5.656854   -0.000116661176504533    9.91805572679449e-05    9.68067321757918e-05
175                      26                      10                2.828427   -1.17903126876761e-06     9.9350103994734e-07    1.58527940061309e-06
176                      26                      10                       0   -2.18448788639388e-07    1.82752885071862e-07    3.98212490917054e-07
177                      28                       8                5.656854   -5.33377208629474e-07    4.72590654861986e-07    3.15312176626356e-07
178                      28                       8                2.828427   -3.15415674976247e-07      2.781140095417e-07    3.09464783462277e-07
179                      28                       8                       0   -2.70245866261251e-09    2.35876855549033e-09    3.73046114587404e-09
180                      30                      10                5.656854   -1.73314176776725e-06    8.83323857482576e-07    8.16714169178313e-07
181                      30                      10                2.828427   -3.49719320252206e-08    1.80069645653656e-08    2.75710726133855e-08
182                      30                      10                       0   -9.07678816639072e-09     4.5793191575919e-09    1.02180547368512e-08
183                       0                      12                5.656854    2.45320780358826e-09    3.60566654031436e-08    5.16311180731345e-08
184                       0                      12                2.828427    1.70842582519869e-09    2.83812584355136e-08     6.7580867976729e-08
185                       0                      12                       0    1.65532692165194e-10    2.06147027386751e-10    7.83084569767424e-10
186                       2                      14                5.656854    9.93942443789386e-06    1.45442672925568e-06    4.69645292207274e-06
187                       2                      14                2.828427    1.68262974481173e-07    2.61315055012458e-08    1.33605481747601e-07
188                       2                      14                       0    4.62668230975635e-08    7.35420149333736e-09    5.09298054541761e-08
189                       4                      12                5.656854    1.08139428320696e-05    4.17052556771586e-06       6.56058529432e-06
190                       4                      12                2.828427    4.17100433534778e-06     1.6723416189467e-06    4.19085021662461e-06
191                       4                      12                       0    2.72191042000211e-08    1.12457311147534e-08    3.77459207856534e-08
192                       6                      14                5.656854     0.00115187846290573    0.000249860775892738    0.000981240364958636
193                       6                      14                2.828427    7.59338822947325e-06    1.84978654260859e-06    1.05089754427964e-05
194                       6                      14                       0    1.02369098066344e-06    2.65024921765407e-07    1.91332888159706e-06
195                       8                      12                5.656854     0.00042509021080136    0.000332362267687424    0.000578625037305214
196                       8                      12                2.828427    6.76482726872822e-05    5.21912624034974e-05    0.000140423234235364
197                       8                      12                       0    2.45328704795507e-07    1.86564607375867e-07     6.5980530502324e-07
198                      10                      14                5.656854     0.00908135983189904     0.00557989107574176      0.0227659212369543
199                      10                      14                2.828427    3.74829913468402e-05    2.25535010266632e-05     0.00014358739895666
200                      10                      14                       0    3.42623262889923e-06    1.99914352686575e-06    1.56481220132034e-05
201                      12                      12                5.656854    0.000772423591878275     0.00203136546191926     0.00418801123839939