ITEM: TIMESTEP
0
ITEM: NUMBER OF ATOMS
422
ITEM: BOX BOUNDS ff ff ff
0.0000000000000000e+00 2.3200000000000000e+02
0.0000000000000000e+00 2.3200000000000000e+02
0.0000000000000000e+00 2.3200000000000000e+02
ITEM: ATOMS id xu yu zu fx fy fz
1        113.190602758324        116.028191380163        108.701524564485       -1.71628974956192       -1.27016076818395    0.000305300731098728
2        118.847882112513        116.009623514077        108.677251272442       0.336362894794164      -0.277034932270135     0.00130399410005479
3        117.393557285086        115.979007403934        108.648066291169        -1.2539420290709      -0.365460299353552     -0.0176669128669079
4        114.585362287492        115.999242191479        108.671144248543      0.0679020770750377         1.2394139836323     0.00285111584650892
5        116.709059284188        114.757708966583        108.664838116419       0.235960242057238       0.205220000617155     -0.0153682245482582
6        115.295986139865        114.769451757709        108.678013148998       -0.75196896775502      -0.214227738164094    -0.00012426969295533
7        115.285522400051        117.236202740411        108.670034535024      -0.352564389750628       -1.99075721622264       0.046697514478907
8        116.650838250708        117.176702655869        108.609102209286        1.67149399352977        1.76044356367597     -0.0124375219388645
9        114.517339529941        113.548028850358        108.656436609183      -0.564009225174178       -1.24938470035612     -0.0171478309249424
10        117.457098100363        113.547946021518        108.653398617632       0.269976847315371       0.399281046088863       0.051371818201253
11        114.525590234458        118.434072335578        108.669580683685      -0.177121376061859        1.30148842957579     -0.0351465254349485
12        117.494803686403        118.463444389926        108.695997575748      -0.436633614810602      -0.265427171947859     -0.0185170414911668
13        113.127310071424        113.562443399086        108.656852811188       0.193247681378771       0.643995662766287      0.0221181506179192
14        113.137218086659        118.419324040819        108.671623278545      -0.645494492465291      -0.329793812204141     0.00584483997941603
15        118.889634934201        113.606859001605        108.695520708033       -1.26146573935429      -0.946358397807697      0.0172322946642263
16        118.830108247399        118.394304946483        108.640856475903       0.935924903476172           1.34303946988      -0.028055512174214
17         112.43624299663        117.203767102131        108.666301158491        1.70363760688764       0.612418168062301   -0.000950371274046505
18        112.440920982572        114.782971738896        108.668545923832        0.42896946087531       -1.34768303271651      0.0130023596408253
19         119.56297685597         114.79478277155        108.673209659278       0.110242914489159       -1.72448531987159      0.0158103335481406
20        119.549536921452        117.206816189383        108.662202946424       -1.28561003845661       -1.90720740976399      0.0892312712770471
21        120.908297096979        114.777597160178        108.610016074355         3.2271168069988        2.24721249823478      0.0893543332387522
22        120.939824996902        117.145321864227        108.643887634651        3.09683904775805        1.97013822918326       0.042521957791612
23        110.984148229343        114.777981385675        108.620376556182         1.7025113683033        1.66077057589492     -0.0518086496407577
24        111.043372620483        117.173402579612        108.681944607338      0.0198624249314842      -0.644880740355692    -0.00583726177213882
25        121.634315070998        116.039585688377        108.704442610259       -3.15690949123095      -0.564962072392259      -0.159809005231671
26         110.38031529619        115.974374700383        108.650478721718       -1.96648109929166      -0.549560119049875      0.0098035450074652
27        121.601996187169        118.178722282271        108.649654141345        -1.0513069104605       0.674009064874516     -0.0652216656341935
28        121.605196529415        113.789715812409        108.648448242715       -2.03851362331018       -1.43907651154007     -0.0259641000757941
29        110.392631184988        118.207441921557        108.689670434261       0.402743021948092       0.253417665881436     0.00488436682561556
30        110.404879053931          113.8274829804        108.697512063671      -0.158530462848337       0.101088489613737      0.0551320373205231
31        112.557927196965        112.573515174816        108.614914374723     -0.0919628595918321      0.0529298387105975    0.000435541531780621
32        112.580569767201        119.337949587811        108.644320266602       0.123706304226524      0.0749897446580292    0.000973843152945103
33        119.343453302434        112.585403504113        108.619993769482        1.02388683848747       0.454624670531856     0.00370444362704049
34         119.39941174583        119.383153799076        108.682715538687       0.129006394288474      -0.073468962899118     -0.0189706092668592
35        114.927913185125        112.534587176137        108.622480612258       0.921705301120628         0.3732222191774     0.00556496173984722
36        114.931270895517        119.377567932976        108.632699786835       0.799374617584586      -0.343768650300652     -0.0014474915444142
37        116.981949516537        112.534982502255        108.620811592515      -0.392929064753605        0.18449447004628    -0.00572249231715129
38        117.025387384038        119.418043417092        108.671110926507        -0.0987376135777     -0.0484999357055352     0.00205146250830584
39                     100                     100              105.656854                       0                       0                       0
40                     100                     100              102.828427                       0                       0                       0
41                     100                     100                     100                       0                       0                       0
42                     102                     102              105.656854                       0                       0                       0
43                     102                     102              102.828427                       0                       0                       0
44                     102                     102                     100                       0                       0                       0
45                     104                     100              105.656854                       0                       0                       0
46                     104                     100              102.828427                       0                       0                       0
47                     104                     100                     100                       0                       0                       0
48                     106                     102              105.656854                       0                       0                       0
49                     106                     102              102.828427                       0                       0                       0
50                     106                     102                     100                       0                       0                       0
51                     108                     100              105.656854                       0                       0                       0
52                     108                     100              102.828427                       0                       0                       0
53                     108                     100                     100                       0                       0                       0
54                     110                     102              105.656854                       0                       0                       0
55                     110                     102              102.828427                       0                       0                       0
56                     110                     102                     100                       0                       0                       0
57                     112                     100              105.656854                       0                       0                       0
58                     112                     100              102.828427                       0                       0                       0
59                     112                     100                     100                       0                       0                       0
60                     114                     102              105.656854                       0                       0                       0
61                     114                     102              102.828427                       0                       0                       0
62                     114                     102                     100                       0                       0                       0
63                     116                     100              105.656854                       0                       0                       0
64                     116                     100              102.828427                       0                       0                       0
65                     116                     100                     100                       0                       0                       0
66                     118                     102              105.656854                       0                       0                       0
67                     118                     102              102.828427                       0                       0                       0
68                     118                     102                     100                       0                       0                       0
69                     120                     100              105.656854                       0                       0                       0
70                     120                     100              102.828427                       0                       0                       0
71                     120                     100                     100                       0                       0                       0
72                     122                     102              105.656854                       0                       0                       0
73                     122                     102              102.828427                       0                       0                       0
74                     122                     102                     100                       0                       0                       0
75                     124                     100              105.656854                       0                       0                       0
76                     124                     100              102.828427                       0                       0                       0
77                     124                     100                     100                       0                       0                       0
78                     126                     102              105.656854                       0                       0                       0
79                     126                     102              102.828427                       0                       0                       0
80                     126                     102                     100                       0                       0                       0
81                     128                     100              105.656854                       0                       0                       0
82                     128                     100              102.828427                       0                       0                       0
83                     128                     100                     100                       0                       0                       0
84                     130                     102              105.656854                       0                       0                       0
85                     130                     102              102.828427                       0                       0                       0
86                     130                     102                     100                       0                       0                       0
87                     100                     104              105.656854                       0                       0                       0
88                     100                     104              102.828427                       0                       0                       0
89                     100                     104                     100                       0                       0                       0
90                     102                     106              105.656854                       0                       0                       0
91                     102                     106              102.828427                       0                       0                       0
92                     102                     106                     100                       0                       0                       0
93                     104                     104              105.656854                       0                       0                       0
94                     104                     104              102.828427                       0                       0                       0
95                     104                     104                     100                       0                       0                       0
96                     106                     106              105.656854                       0                       0                       0
97                     106                     106              102.828427                       0                       0                       0
98                     106                     106                     100                       0                       0                       0
99                     108                     104              105.656854                       0                       0                       0
100                     108                     104              102.828427                       0                       0                       0
101                     108                     104                     100                       0                       0                       0
102                     110                     106              105.656854                       0                       0                       0
103                     110                     106              102.828427                       0                       0                       0
104                     110                     106                     100                       0                       0                       0
105                     112                     104              105.656854                       0                       0                       0
106                     112                     104              102.828427                       0                       0                       0
107                     112                     104                     100                       0                       0                       0
108                     114                     106              105.656854                       0                       0                       0
109                     114                     106              102.828427                       0                       0                       0
110                     114                     106                     100                       0                       0                       0
111                     116                     104              105.656854                       0                       0                       0
112                     116                     104              102.828427                       0                       0                       0
113                     116                     104                     100                       0                       0                       0
114                     118                     106              105.656854                       0                       0                       0
115                     118                     106              102.828427                       0                       0                       0
116                     118                     106                     100                       0                       0                       0
117                     120                     104              105.656854                       0                       0                       0
118                     120                     104              102.828427                       0                       0                       0
119                     120                     104                     100                       0                       0                       0
120                     122                     106              105.656854                       0                       0                       0
121                     122                     106              102.828427                       0                       0                       0
122                     122                     106                     100                       0                       0                       0
123                     124                     104              105.656854                       0                       0                       0
124                     124                     104              102.828427                       0                       0                       0
125                     124                     104                     100                       0                       0                       0
126                     126                     106              105.656854                       0                       0                       0
127                     126                     106              102.828427                       0                       0                       0
128                     126                     106                     100                       0                       0                       0
129                     128                     104              105.656854                       0                       0                       0
130                     128                     104              102.828427                       0                       0                       0
131                     128                     104                     100                       0                       0                       0
132                     130                     106              105.656854                       0                       0                       0
133                     130                     106              102.828427                       0                       0                       0
134                     130                     106                     100                       0                       0                       0
135                     100                     108              105.656854                       0                       0                       0
136                     100                     108              102.828427                       0                       0                       0
137                     100                     108                     100                       0                       0                       0
138                     102                     110              105.656854                       0                       0                       0
139                     102                     110              102.828427                       0                       0                       0
140                     102                     110                     100                       0                       0                       0
141                     104                     108              105.656854                       0                       0                       0
142                     104                     108              102.828427                       0                       0                       0
143                     104                     108                     100                       0                       0                       0
144                     106                     110              105.656854                       0                       0                       0
145                     106                     110              102.828427                       0                       0                       0
146                     106                     110                     100                       0                       0                       0
147                     108                     108              105.656854                       0                       0                       0
148                     108                     108              102.828427                       0                       0                       0
149                     108                     108                     100                       0                       0                       0
150                     110                     110              105.656854                       0                       0                       0
151                     110                     110              102.828427                       0                       0                       0
152                     110                     110                     100                       0                       0                       0
153                     112                     108              105.656854                       0                       0                       0
154                     112                     108              102.828427                       0                       0                       0
155                     112                     108                     100                       0                       0                       0
156                     114                     110              105.656854                       0                       0                       0
157                     114                     110              102.828427                       0                       0                       0
158                     114                     110                     100                       0                       0                       0
159                     116                     108              105.656854                       0                       0                       0
160                     116                     108              102.828427                       0                       0                       0
161                     116                     108                     100                       0                       0                       0
162                     118                     110              105.656854                       0                       0                       0
163                     118                     110              102.828427                       0                       0                       0
164                     118                     110                     100                       0                       0                       0
165                     120                     108              105.656854                       0                       0                       0
166                     120                     108              102.828427                       0                       0                       0
167                     120                     108                     100                       0                       0                       0
168                     122                     110              105.656854                       0                       0                       0
169                     122                     110              102.828427                       0                       0                       0
170                     122                     110                     100                       0                       0                       0
171                     124                     108              105.656854                       0                       0                       0
172                     124                     108              102.828427                       0                       0                       0
173                     124                     108                     100                       0                       0                       0
174                     126                     110              105.656854                       0                       0                       0
175                     126                     110              102.828427                       0                       0                       0
176                     126                     110                     100                       0                       0                       0
177                     128                     108              105.656854                       0                       0                       0
178                     128                     108              102.828427                       0                       0                       0
179                     128                     108                     100                       0                       0                       0
180                     130                     110              105.656854                       0                       0                       0
181                     130                     110              102.828427                       0                       0                       0
182                     130                     110                     100                       0                       0                       0
183                     100                     112              105.656854                       0                       0                       0
184                     100                     112              102.828427                       0                       0                       0
185                     100                     112                     100                       0                       0                       0
186                     102                     114              105.656854                       0                       0                       0
187                     102                     114              102.828427                       0                       0                       0
188                     102                     114                     100                       0                       0                       0
189                     104                     112              105.656854                       0                       0                       0
190                     104                     112              102.828427                       0                       0                       0
191                     104                     112                     100                       0                       0                       0
192                     106                     114              105.656854                       0                       0                       0
193                     106                     114              102.828427                       0                       0                       0
194                     106                     114                     100                       0                       0                       0
195                     108                     112              105.656854                       0                       0                       0
196                     108                     112              102.828427                       0                       0                       0
197                     108                     112                     100                       0                       0                       0
198                     110                     114              105.656854                       0                       0                       0
199                     110                     114              102.828427                       0                       0                       0
200                     110                     114                     100                       0                       0                       0
201                     112                     112              105.656854                       0                       0                       0