ITEM: TIMESTEP
0
ITEM: NUMBER OF ATOMS
422
ITEM: BOX BOUNDS ff ff ff
0.0000000000000000e+00 2.3200000000000000e+02
0.0000000000000000e+00 2.3200000000000000e+02
0.0000000000000000e+00 2.3200000000000000e+02
ITEM: ATOMS id xu yu zu fx fy fz
1        113.145932193839        115.983520815677              109.156854     0.00159061662379871    -0.00121416863592123     -0.0160840967410288
2        118.827484840071        115.989226241634              109.156854    -0.00430019817976509    -0.00121267652611771     -0.0156274254976843
3        117.402344993917        115.987795112765              109.156854      0.0029716443444448     0.00288772878337726     -0.0146196484848833
4        114.571072038949        115.984951942936              109.156854     0.00279265016602995     0.00295091836654202     -0.0142077617524243
5        116.701075167769        114.749724850164              109.156854    0.000940718015619216     0.00573031643386534    -0.00976169055761856
6        115.274826990867        114.748292608712              109.156854     0.00670525079985837     0.00582896788465303    -0.00920137224269955
7        115.272341865028        117.223022205388              109.156854      0.0065751518949576     0.00175516997278708    -0.00978432052970635
8        116.698590041422        117.224454446583              109.156854    0.000969044704239111     0.00180995849070453      -0.010375146411875
9        114.517756920757        113.548446241175              109.156854     0.00263648803778507     -0.0123288911803021      0.0133003086429703
10        117.460553482731        113.551401403886              109.156854      -0.020814851195024     -0.0122876846707991      0.0139957857836439
11        114.512863550773        118.421345651893              109.156854     0.00273079836978927    -0.00619215554316004      0.0158489033983555
12        117.455660110655        118.424300814179              109.156854      -0.020478371244802    -0.00590946491694533      0.0161771611793079
13        113.127311260236        113.562444587898              109.156854     0.00563139920728778     -0.0122266078625371     0.00368308850424075
14        113.122448808114        118.404554762274              109.156854      0.0054314917925487    -0.00345090570403246     0.00558598076586891
15        118.850968226168        113.568192293572              109.156854      -0.021224293779735     -0.0123431908950236     0.00624733730329325
16        118.846105771496         118.41030247058              109.156854     -0.0206525187044321    -0.00279976684504443     0.00820682963390019
17        112.426795838139         117.19431994364              109.156854     0.00253471238645151      0.0078538869690255     -0.0125530582441629
18         112.42922905874        114.771279815063              109.156854     0.00239820088108087     0.00146125637106245     -0.0119294722471705
19        119.546621196692        114.778427112272              109.156854       0.007379872587136       0.001445809852387     -0.0132323474696389
20        119.544187975028         117.20146724296              109.156854     0.00714840840326986     0.00747378239132687     -0.0137458125856362
21        120.955135022624        114.824435085822              109.156854       0.130147322057159       0.126976230702775     -0.0251496230060464
22        120.952791362251        117.158288229576              109.156854       0.127906634017963     -0.0282977993693652     -0.0296628509035381
23        111.020625673161        114.814458829493              109.156854     -0.0149549227519826       0.128269332449428   -0.000831355859417611
24        111.018282013145        117.148311972274              109.156854     -0.0138585776884771     -0.0236771609326022    -0.00545470528920541
25        121.586726460739        115.991997078118              109.156854      -0.047741758402697     -0.0259675565953948    -0.00283848564735468
26        110.386690574472        115.980749978664              109.156854     -0.0163134272449246     -0.0275717310440302     -0.0180930841651901
27        121.609196045824        118.185922140926              109.156854       -0.14641408451569     -0.0560609349562772      0.0703921552518492
28          121.6136022867        113.798121569695              109.156854      -0.152572898811397     -0.0645561007934021       0.059286593113019
29        110.359814750727        118.174625487296              109.156854     0.00414583847371973     -0.0652124188700015      0.0368159197163565
30         110.36422099026         113.78682491673              109.156854     0.00727499037381081     -0.0644181083093495      0.0242726816906306
31        112.599866822243        112.615454800093              109.156854     -0.0227257634630346      0.0194663737827666     0.00392772408453666
32        112.593103500599        119.350483321209              109.156854     -0.0222349771075803      0.0219122122722202    -0.00229569128767386
33        119.380313532952        112.622263734631              109.156854      0.0643284616913212      0.0201461164962343    -0.00234024385505182
34        119.373550207142        119.357292260389              109.156854      0.0621477395859865      0.0199342380341952    -0.00830886417537191
35        114.962286572867         112.56896056388              109.156854     0.00903340396312111      0.0114448620234168    -0.00418480799568173
36        114.955425108682        119.401722146141              109.156854     0.00879216248834398       0.015692497360688    -0.00834019017822751
37        117.017991924022        112.571024909739              109.156854      0.0171415016789163      0.0115696149620948    -0.00519699746540467
38        117.011130457531        119.403786490585              109.156854       0.016343532038929      0.0152679214557391    -0.00919119098179899
39                     100                     100              105.656854       0.212163154010229       0.213973348305681      -0.975647072320956
40                     100                     100              102.828427       0.432017909262396       0.430453127548024   -0.000390761636954469
41                     100                     100                     100        0.21214401693965       0.213411633556169       0.976314768946275
42                     102                     102              105.656854      -0.344480285617478       -0.34755542202444      -0.278038652518035
43                     102                     102              102.828427     -0.0509072202223022     -0.0483747967322557    0.000701980645776266
44                     102                     102                     100      -0.344488662296992      -0.346418117754751       0.276871103498522
45                     104                     100              105.656854      0.0957645014389331       0.960081628060008      -0.808912729523713
46                     104                     100              102.828427     -0.0637606859627015        0.72671282633286   -0.000279696275005301
47                     104                     100                     100      0.0961626349151152       0.959427831372902       0.809361773657034
48                     106                     102              105.656854      -0.149085219793291      -0.514894882324309      -0.381493341088867
49                     106                     102              102.828427       0.142230935583445       0.066487439188923    0.000365938500634815
50                     106                     102                     100      -0.150158873532409      -0.513722053365091       0.380934352560085
51                     108                     100              105.656854       0.109528714463562        1.06008070794326      -0.801931370147128
52                     108                     100              102.828427      -0.111559466546901       0.639878231956961    0.000273307168861483
53                     108                     100                     100       0.110627793958104        1.06003674008678       0.801422266060284
54                     110                     102              105.656854      -0.143151744057819      -0.581858704391285      -0.373741680458752
55                     110                     102              102.828427       0.148001242233318       0.134821872996116    -0.00100085745389458
56                     110                     102                     100      -0.145600783949694      -0.582638569917611       0.375485333578858
57                     112                     100              105.656854       0.131678608602852        1.10843049745218      -0.810786744503018
58                     112                     100              102.828427      -0.135500940392761       0.589397396570541     0.00120858342222791
59                     112                     100                     100        0.13287759128756        1.10991442224346       0.808701457098945
60                     114                     102              105.656854       -0.16384276095952      -0.618901401790268      -0.361121893553187
61                     114                     102              102.828427        0.16881138427735       0.175015749658172    -0.00268192343640719
62                     114                     102                     100      -0.165328996642714      -0.622834929411476       0.365670403216319
63                     116                     100              105.656854       0.166588933215651        1.14394545927069      -0.821387597931049
64                     116                     100              102.828427      -0.170772074353432       0.552170814560864      0.0017184889376222
65                     116                     100                     100       0.166587566181982        1.14636710211579       0.818450480141386
66                     118                     102              105.656854       -0.20945625308044       -0.65110118791786      -0.347689764983833
67                     118                     102              102.828427       0.214278766976357       0.208262321374163    -0.00267940202486239
68                     118                     102                     100      -0.207965304737413      -0.655027701386684       0.352234019614346
69                     120                     100              105.656854       0.223200696560689        1.18251416069821      -0.835354418697322
70                     120                     100              102.828427       -0.22858737007294       0.512889734040146     0.00120759499334587
71                     120                     100                     100       0.222002767385896        1.18399488329659       0.833270785983969
72                     122                     102              105.656854      -0.288700946629249      -0.688029727994014      -0.330212817820997
73                     122                     102              102.828427        0.29343298930585       0.244386788203708   -0.000999804938259512
74                     122                     102                     100      -0.286259581178104      -0.688805719845034       0.331954646972236
75                     124                     100              105.656854       0.326348541721056        1.23672318768381      -0.852129621445137
76                     124                     100              102.828427       -0.32295467620955       0.459494170386492    0.000274581978530718
77                     124                     100                     100       0.325253335811976        1.23668069026973       0.851618447901082
78                     126                     102              105.656854      -0.461675081556241      -0.727691893217886      -0.332061389576119
79                     126                     102              102.828427       0.397182283432236       0.281663112515533    0.000361217629226939
80                     126                     102                     100      -0.460606688257722      -0.726527186346035       0.331510119895471
81                     128                     100              105.656854       0.708265591935538        1.34072724811123      -0.754713133734367
82                     128                     100              102.828427      -0.280909646618223       0.396094479640994   -0.000276339685657772
83                     128                     100                     100       0.707868743418668        1.34007835981714       0.755156610202629
84                     130                     102              105.656854       -1.34060551058799      -0.708727194753587      -0.755479062993149
85                     130                     102              102.828427      -0.395854453286176       0.280967714072809    0.000695995597973523
86                     130                     102                     100       -1.34059601892657      -0.707598302936724       0.754321404142266
87                     100                     104              105.656854       0.959069403344673      0.0999941598223987      -0.808327100791256
88                     100                     104              102.828427       0.727709909244007     -0.0671432720808264    -0.00107486673947412
89                     100                     104                     100       0.958513684211092      0.0986440102189955       0.810134904403228
90                     102                     106              105.656854        -0.5136988453421      -0.156945792458415      -0.382992627974987
91                     102                     106              102.828427      0.0651215686741997       0.147971689718022     0.00217285166875317
92                     102                     106                     100      -0.512415082517786       -0.15395995269844       0.379399451017849
93                     104                     104              105.656854       0.247144631522653       0.252803106465024       -0.38838239241871
94                     104                     104              102.828427      -0.179943839541936      -0.184255688331482    -0.00132012067189494
95                     104                     104                     100       0.247334400252954        0.25033817336409       0.390539161333098
96                     106                     106              105.656854      -0.233005867986851      -0.244569622660395      -0.504916509819265
97                     106                     106              102.828427       0.225241360438504       0.232951490478839     0.00252518973781194
98                     106                     106                     100      -0.234184419005943      -0.238889176725175       0.500654647350381
99                     108                     104              105.656854        0.17303855121408       0.338482070338733       -0.37520843382548
100                     108                     104              102.828427      -0.177206451976945      -0.268596119523901   -0.000220132996549173
101                     108                     104                     100        0.17616025353915       0.336628749693889       0.375513268019612
102                     110                     106              105.656854       -0.18173620876777      -0.292766760019536      -0.489887322929457
103                     110                     106              102.828427       0.192343998298374       0.285383041808516    -0.00125465941539874
104                     110                     106                     100      -0.191068968144729      -0.291722447360691       0.492001740785566
105                     112                     104              105.656854       0.166857694823941       0.379403165135604      -0.391227354446793
106                     112                     104              102.828427      -0.174210914822139      -0.314605197679668     0.00312744360487349
107                     112                     104                     100       0.171824185118534       0.383526607731008       0.385871109310197
108                     114                     106              105.656854      -0.188224814614036      -0.308503902845251      -0.466125734679986
109                     114                     106              102.828427       0.197709695104349       0.312469718906584    -0.00837779477958593
110                     114                     106                     100      -0.195244856524933       -0.32265838552443       0.481282534695927
111                     116                     104              105.656854       0.198200630084426       0.405507669225421      -0.406934097046502
112                     116                     104              102.828427      -0.203403834308945      -0.344549562518325     0.00531350445693385
113                     116                     104                     100       0.198189763575492       0.414172056237959        0.39785921415466
114                     118                     106              105.656854       -0.24101816497003      -0.330751633071695      -0.450241228235499
115                     118                     106              102.828427        0.24312334105697       0.335382992421441    -0.00835978142344851
116                     118                     106                     100      -0.233961815646125      -0.344855090198161       0.465362340355446
117                     120                     104              105.656854       0.260555922417374       0.436080269462461      -0.421945665724563
118                     120                     104              102.828427       -0.26478287800899      -0.373115798956359     0.00311907450694031
119                     120                     104                     100       0.255595199414401       0.440180781468937       0.416604058473405
120                     122                     106              105.656854      -0.318485234648807      -0.362761560840039      -0.438117620324292
121                     122                     106              102.828427       0.319593122724033       0.357645600450144    -0.00124570598320933
122                     122                     106                     100       -0.30920470830612      -0.361695358986809       0.440217107435861
123                     124                     104              105.656854       0.368192711020335       0.463781401031214      -0.438533752081273
124                     124                     104              102.828427      -0.362459096392034      -0.397804378570753   -0.000216129270564744
125                     124                     104                     100       0.365089500924995       0.461936607874339       0.438831552419973
126                     126                     106              105.656854      -0.466223754743768      -0.368851026417659      -0.441820322648133
127                     126                     106              102.828427        0.40109445247678       0.361185184656053     0.00250606557943454
128                     126                     106                     100        -0.4650579002116      -0.363211513473451       0.437593590258152
129                     128                     104              105.656854       0.728025426009632       0.462292131353191      -0.330531526523932
130                     128                     104              102.828427      -0.282652778710595      -0.396938533931015    -0.00130910949734641
131                     128                     104                     100       0.727836023161006       0.459845670569352       0.332670127887831
132                     130                     106              105.656854       -1.23669595418777      -0.328197564861885      -0.853823670458855
133                     130                     106              102.828427      -0.458666978068334       0.323707420900093     0.00215561213071959
134                     130                     106                     100       -1.23796832990254      -0.325235322066719        0.85025899016099
135                     100                     108              105.656854        1.06286195660327       0.116533299598045      -0.799717746467669
136                     100                     108              102.828427       0.638397962143374      -0.116749345744637    -0.00250404668909977
137                     100                     108                     100        1.06051910960809       0.114102433067769       0.803885838745306
138                     102                     110              105.656854      -0.589371224877438      -0.155268055470611      -0.379581416348357
139                     102                     110              102.828427       0.138209439762396       0.155944613660198     0.00524380767668054
140                     102                     110                     100      -0.583558442580854       -0.15028796929179       0.370788237184939
141                     104                     108              105.656854       0.337829899177635       0.188961183041852      -0.370665451033531
142                     104                     108              102.828427      -0.266748714688122      -0.187180470221622    -0.00467199916181987
143                     104                     108                     100       0.334676550249665       0.181859982711515       0.378608806642521
144                     106                     110              105.656854      -0.295984358577507      -0.216174725899829      -0.506724194542686
145                     106                     110              102.828427        0.28255473825221       0.208956266307261      0.0101397464924741
146                     106                     110                     100      -0.288558095062887      -0.198887281813807       0.486029248882599
147                     108                     108              105.656854       0.221780808028196       0.248704639419501      -0.358609740249629
148                     108                     108              102.828427      -0.229190465241012      -0.243242788229519    -0.00431452355882937
149                     108                     108                     100       0.228350654068071        0.23546089124724       0.367747049972526
150                     110                     110              105.656854      -0.186072975279132      -0.251181772384378      -0.488754152490026
151                     110                     110              102.828427       0.218357152009023       0.241657121755695     0.00320725744758452
152                     110                     110                     100      -0.222804253374894       -0.23230991560326       0.475599172560388
153                     112                     108              105.656854       0.178354283137527       0.257980627521771      -0.393630363699262
154                     112                     108              102.828427      -0.199767575359584      -0.269972568944136     0.00781375479840983
155                     112                     108                     100        0.20197413601232       0.267575220395869       0.378289074895803
156                     114                     110              105.656854      -0.183206205286726      -0.201445955071149      -0.394484477965518
157                     114                     110              102.828427       0.211271695361895       0.248919429210733     -0.0237535117038316
158                     114                     110                     100      -0.214200982005083      -0.250082539677796        0.46858521330178
159                     116                     108              105.656854       0.220261318864047       0.255645690602497      -0.425721242793516
160                     116                     108              102.828427      -0.226111461782451      -0.284276599004118      0.0175250842282058
161                     116                     108                     100       0.220186935821797       0.286894569488742       0.389801329218923
162                     118                     110              105.656854      -0.279768679353527      -0.212657551438124       -0.37742406192685
163                     118                     110              102.828427       0.264146262756184       0.260266329816068     -0.0236627894338185
164                     118                     110                     100      -0.248493551740484      -0.261051702043031       0.451209219463032
165                     120                     108              105.656854       0.296654734809823       0.291727677715059      -0.428327844713995
166                     120                     108              102.828427      -0.288431683439291      -0.304659070718624      0.0077588783616854
167                     120                     108                     100       0.273081248418697       0.301167341612328       0.413112560657342
168                     122                     110              105.656854      -0.350257293154548      -0.284831893720861      -0.432413756294133
169                     122                     110              102.828427       0.331238195584261       0.276244851682867      0.0032587511648428
170                     122                     110                     100      -0.313953891703107       -0.26580362186148       0.419161016218627
171                     124                     108              105.656854        0.37505304991327       0.318262119427848      -0.431007074388351
172                     124                     108              102.828427      -0.367755864810027      -0.315136551340631    -0.00429474323031685
173                     124                     108                     100       0.368570417622945       0.305091901877513       0.440076799758912
174                     126                     110              105.656854       -0.43947680685131      -0.271950895744402       -0.43522562190236
175                     126                     110              102.828427       0.381076654210673       0.266667953620507      0.0100705053094498
176                     126                     110                     100      -0.446872631562847      -0.254798393387977       0.414727885046881
177                     128                     108              105.656854       0.688699277464469       0.293036791823293      -0.325976601259626
178                     128                     108              102.828427      -0.247024021699494      -0.294691459509218    -0.00463531125458744
179                     128                     108                     100       0.691827812727902       0.285994463716241       0.333852476688685
180                     130                     110              105.656854       -1.18012412622101      -0.227604757986774      -0.839544880585687
181                     130                     110              102.828427      -0.512316562169942       0.230689985151731     0.00520271321269227
182                     130                     110                     100        -1.1858863478917      -0.222663300087881       0.830823560434933
183                     100                     112              105.656854         1.1180006081525       0.137971509655971      -0.806013706289658
184                     100                     112              102.828427       0.583810674713413      -0.139923754419638    -0.00442152928191292
185                     100                     112                     100        1.11252200180053         0.1356607095156       0.813364460893378
186                     102                     114              105.656854      -0.637851613966126      -0.170218858695257      -0.372172440659612
187                     102                     114              102.828427       0.184169251460054       0.172820675842445     0.00839345502398797
188                     102                     114                     100      -0.626247033298922       -0.16757639567201       0.357866189484534
189                     104                     112              105.656854       0.399168144566421       0.186342162163853      -0.374026245087702
190                     104                     112              102.828427      -0.321093085756706      -0.184896658270028     -0.0110178231026419
191                     104                     112                     100       0.384646577850734       0.177231699153873       0.394401562510005
192                     106                     114              105.656854      -0.348315943649599      -0.207580887487497      -0.515634018417253
193                     106                     114              102.828427       0.320211736727012       0.207161890472105      0.0201857313513925
194                     106                     114                     100      -0.322558962557259      -0.199437023634186       0.467887606641774
195                     108                     112              105.656854       0.271118210070752       0.244394101915818      -0.320396876072232
196                     108                     112              102.828427      -0.262631864240431      -0.221428448221052     -0.0175206407886886
197                     108                     112                     100        0.26208219194633       0.210563345033164       0.388062912427022
198                     110                     114              105.656854      -0.148067373652085      -0.197993143534164      -0.543559925996227
199                     110                     114              102.828427       0.229414012346529       0.226196976566822      0.0109823406787556
200                     110                     114                     100      -0.241508872723075       -0.22007036435279       0.457203896805183
201                     112                     112              105.656854        0.12683721406018       0.227230643378949      -0.422411631296937