ITEM: TIMESTEP
0
ITEM: NUMBER OF ATOMS
422
ITEM: BOX BOUNDS pp pp pp
0.0000000000000000e+00 3.2000000000000000e+01
0.0000000000000000e+00 3.2000000000000000e+01
0.0000000000000000e+00 3.2000000000000000e+01
ITEM: ATOMS id xu yu zu fx fy fz
1        14.2459321938386        15.9835208156773                 8.65685     0.00276893941879966    0.000837146871070268      0.0177781577096831
2        19.9274848400711        15.9892262416344                 8.65685    0.000443199531185152     6.7106334494081e-05    -0.00436817463492913
3         18.502344993917         15.987795112765                 8.65685     0.00493220894457946    0.000550050147298961      0.0143892869003894
4         15.671072038949        15.9849519429358                 8.65685     0.00203750057539193    0.000132311225713042     -0.0034256452794271
5        17.8010751677692        14.7497248501637                 8.65685     -0.0105292046179445       0.039728657777378       0.134886947530133
6        16.3748269908674        14.7482926087119                 8.65685     -0.0135895637823533     0.00834152716493897      0.0186073257988767
7        16.3723418650276        17.2230222053877                 8.65685     -0.0131326793178372    -0.00837290356995493      0.0176906984419317
8        17.7985900414216        17.2244544465825                 8.65685     -0.0103934247657389     -0.0400586324806044        0.13109187883775
9        15.6177569207574        13.5484462411751                 8.65685      0.0173315934076545    -0.00648301178321244      0.0266273477770728
10        18.5605534827313        13.5514014038861                 8.65685      0.0313668569891437     -0.0250915729840987       0.143341488309361
11        15.6128635507729         18.421345651893                 8.65685      0.0178329884462407     0.00620332746439785      0.0275737954466549
12        18.5556601106552        18.4243008141789                 8.65685      0.0316197356090764      0.0241326034324085       0.146056619052607
13        14.2273112602357        13.5624445878976                 8.65685      0.0150869577543687     -0.0290631575940717       0.173459433090724
14        14.2224488081137        18.4045547622743                 8.65685      0.0150465825828547      0.0273818900659643       0.177120466554755
15         19.950968226168        13.5681922935721                 8.65685     0.00230215404586908    -0.00447243979712086      0.0156750446875171
16        19.9461057714963        18.4103024705805                 8.65685     0.00255904631191972     0.00431089365264217      0.0160312191499899
17         13.526795838139        17.1943199436399                 8.65685     -0.0211341354445619     -0.0359821264595223       0.111214786213268
18        13.5292290587396        14.7712798150634                 8.65685     -0.0217861995810866      0.0357022160555192       0.115801693713526
19        20.6466211966922        14.7784271122721                 8.65685     -0.0214994627834889       0.013118810720457      0.0339769012689425
20        20.6441879750283        17.2014672429596                 8.65685     -0.0210070799253903     -0.0131293349389137      0.0328978398804712
21        22.0551350226241        14.8244350858224                 8.65685     0.00277295777317648      0.0414844063375979       0.127372284099555
22        22.0527913622507        17.1582882295758                 8.65685     0.00260789535565288     -0.0415910020957602       0.124822738900423
23        12.1206256731611        14.8144588294926                 8.65685    -0.00417920254768329     0.00620205778347968     0.00945367898160772
24        12.1182820131454        17.1483119722736                 8.65685    -0.00393807742482772    -0.00618945730370203     0.00866452222017688
25        22.6867264607395        15.9919970781177                 8.65685     0.00201159321870829    0.000125709691495573    -0.00401308877035461
26        11.4866905744716        15.9807499786644                 8.65685    0.000996901381206065    8.59919504046179e-05    -0.00912003467703472
27         22.709196045824        18.1859221409264                 8.65685      0.0161706683460601     0.00421348241904694       0.051139261254042
28        22.7136022867001        13.7981215696947                 8.65685      0.0161404551054619    -0.00453824905225049      0.0506124082443849
29        11.4598147507275        18.1746254872963                 8.65685      0.0107998235940675     0.00139622838215664     0.00961841588074532
30        11.4642209902605        13.7868249167297                 8.65685      0.0106183471964378    -0.00167428068090106     0.00922848098601988
31        13.6998668222426        12.6154548000933                 8.65685   -0.000573952193853745    -0.00299870038173721    -0.00458274864970751
32        13.6931035005993        19.3504833212092                 8.65685   -0.000632448523543716     0.00313354598433147    -0.00417012279678388
33        20.4803135329519        12.6222637346313                 8.65685   -0.000457883412448919   -0.000361410614631845    -0.00952742214365689
34        20.4735502071424         19.357292260389                 8.65685   -0.000482175024840312    0.000365719201317893    -0.00949684352515058
35        16.0622865728669        12.5689605638796                 8.65685   -4.51154600800696e-05    2.06879492601619e-05     -0.0101632994579203
36         16.055425108682        19.4017221461408                 8.65685   -4.53014420556119e-05   -1.55323140015595e-05     -0.0101402967391458
37        18.1179919240215        12.5710249097393                 8.65685    0.000215866678169542    -0.00296606833934514     -0.0047864032461425
38         18.111130457531        19.4037864905846                 8.65685     0.00021600859222437     0.00308729084342221    -0.00446512974192788
39                       0                       0                5.656854                       0                       0                       0
40                       0                       0                2.828427                       0                       0                       0
41                       0                       0                       0                       0                       0                       0
42                       2                       2                5.656854                       0                       0                       0
43                       2                       2                2.828427                       0                       0                       0
44                       2                       2                       0                       0                       0                       0
45                       4                       0                5.656854                       0                       0                       0
46                       4                       0                2.828427                       0                       0                       0
47                       4                       0                       0                       0                       0                       0
48                       6                       2                5.656854    8.29692459120097e-09     1.4775065670648e-08    3.81879359710901e-09
49                       6                       2                2.828427    2.37744260783099e-10    4.40676531172408e-10    2.24881748561343e-10
50                       6                       2                       0                       0                       0                       0
51                       8                       0                5.656854    2.93395666672979e-10    2.01028873996711e-11    1.93114790086363e-10
52                       8                       0                2.828427                       0                       0                       0
53                       8                       0                       0                       0                       0                       0
54                      10                       2                5.656854    6.00843465026174e-08    1.88161384791144e-07    4.94340451735878e-08
55                      10                       2                2.828427    2.20900637946394e-09    6.96524877125798e-09    3.55767058280401e-09
56                      10                       2                       0    5.95611318527309e-10    2.08208433327771e-09    1.62890650467288e-09
57                      12                       0                5.656854    1.29442903040903e-09    1.58660510724674e-10    1.61592394341953e-09
58                      12                       0                2.828427    1.22339497092104e-09    7.92150665119053e-10    3.30495556681037e-09
59                      12                       0                       0                       0                       0                       0
60                      14                       2                5.656854     7.0728928606048e-08    6.43457389952936e-07    1.72262216056427e-07
61                      14                       2                2.828427    2.53268499647723e-09    2.25551215181588e-08    1.16975155333558e-08
62                      14                       2                       0    7.50501022020404e-10    9.26772435882143e-09    7.23998398912298e-09
63                      16                       0                5.656854    4.63805554658022e-10    2.89312632342395e-10    3.26301568944134e-09
64                      16                       0                2.828427    4.26020345711824e-10    3.47049268640728e-10    8.07991132189981e-09
65                      16                       0                       0                       0                       0                       0
66                      18                       2                5.656854   -2.32276248802123e-08    7.92126841444879e-07    2.12824356496053e-07
67                      18                       2                2.828427   -8.04809619322744e-10    2.75991659165544e-08    1.43640782848122e-08
68                      18                       2                       0   -5.17344897604912e-10    1.25298949557476e-08    9.79509861596795e-09
69                      20                       0                5.656854   -1.05923100246447e-09    2.01317107244861e-10    2.65428473218715e-09
70                      20                       0                2.828427   -1.11233836218938e-09    2.21462086761009e-10    6.15971172661864e-09
71                      20                       0                       0                       0                       0                       0
72                      22                       2                5.656854   -8.50237535441447e-08    4.25217400664379e-07    1.12945581779635e-07
73                      22                       2                2.828427   -2.97636136021942e-09    1.50300147268976e-08    7.75185728318655e-09
74                      22                       2                       0   -1.35289083564161e-09    6.78915626322389e-09    5.27116551345912e-09
75                      24                       0                5.656854   -1.02142500366317e-09    5.73118485386267e-11     8.3985616578799e-10
76                      24                       0                2.828427   -4.80455765646942e-10    2.51802905654469e-11    7.94858570463692e-10
77                      24                       0                       0                       0                       0                       0
78                      26                       2                5.656854   -3.01101414019909e-08    7.04223343847802e-08    1.82986330756686e-08
79                      26                       2                2.828427    -1.1435799364719e-09    2.65485755479746e-09    1.34787188918715e-09
80                      26                       2                       0   -3.44707812726815e-10    9.13961038639305e-10     7.0098062630508e-10
81                      28                       0                5.656854   -3.29373953308527e-11    5.52874767345239e-11    1.31404486976923e-11
82                      28                       0                2.828427                       0                       0                       0
83                      28                       0                       0                       0                       0                       0
84                      30                       2                5.656854   -1.64540893787099e-09    2.43453709120283e-09    6.33380217821403e-10
85                      30                       2                2.828427                       0                       0                       0
86                      30                       2                       0                       0                       0                       0
87                       0                       4                5.656854   -5.50083873494271e-10    5.55750654148113e-10    1.72672153930777e-10
88                       0                       4                2.828427   -6.73783611622293e-10     7.1091223337206e-10    4.22886895461962e-10
89                       0                       4                       0                       0                       0                       0
90                       2                       6                5.656854    2.82209156357868e-08    2.64950483153779e-08     9.8727329387465e-09
91                       2                       6                2.828427    1.03273787342123e-09    1.01749016182411e-09    7.34895288892853e-10
92                       2                       6                       0                       0                       0                       0
93                       4                       4                5.656854    4.39527171735656e-09    5.37347748136067e-09    1.62574699563361e-09
94                       4                       4                2.828427    4.76789824103671e-09    5.92926845718549e-09    3.51551448227825e-09
95                       4                       4                       0                       0                       0                       0
96                       6                       6                5.656854    1.45800343056247e-06    1.85510039547013e-06    7.00873593311842e-07
97                       6                       6                2.828427    4.39190247540619e-08     5.5369125415409e-08     4.0395796293354e-08
98                       6                       6                       0    1.87573189023754e-08     2.3224338419022e-08    2.52576488492864e-08
99                       8                       4                5.656854    7.66527335511137e-08    1.52214153950843e-07    4.71663803502359e-08
100                       8                       4                2.828427    8.19903342551526e-08    1.61736845740736e-07    9.70240819766357e-08
101                       8                       4                       0       1.20784199453e-09    2.33980122215506e-09    2.09432315116781e-09
102                      10                       6                5.656854    1.55085622638187e-05    3.68586944696997e-05    1.45796627017441e-05
103                      10                       6                2.828427    3.46128549911517e-07    8.07889772865496e-07    6.12849314672351e-07
104                      10                       6                       0    1.11570738185914e-07    2.55435813862659e-07    2.83906560929114e-07
105                      12                       4                5.656854    2.66552531017108e-07    1.14235629958122e-06    3.66971522787078e-07
106                      12                       4                2.828427    2.43886375618798e-07    1.02710926735301e-06    6.35179194553096e-07
107                      12                       4                       0    3.04513172576369e-09    1.27775842109821e-08    1.16533114495758e-08
108                      14                       6                5.656854    1.99608537422514e-05    0.000158990252002279    6.57503475621957e-05
109                      14                       6                2.828427    3.92560223647882e-07    2.90538519434245e-06    2.29034890544206e-06
110                      14                       6                       0    1.14295225252334e-07     7.8180409566225e-07    8.96532675062756e-07
111                      16                       4                5.656854    7.56841873168757e-08    2.28701939835401e-06    7.46641472418122e-07
112                      16                       4                2.828427     7.1165843719159e-08    1.95900866718981e-06    1.23007242741491e-06
113                      16                       4                       0    8.72662170041532e-10    2.33102791081136e-08    2.15444717485634e-08
114                      18                       6                5.656854   -5.10150875904294e-06    0.000193699475671675     8.0737288862687e-05
115                      18                       6                2.828427   -1.10581423746322e-07    3.51083709048404e-06    2.78899752650591e-06
116                      18                       6                       0   -3.46950800137278e-08     9.3550857323088e-07    1.08048395154409e-06
117                      20                       4                5.656854    -2.0912484767979e-07    1.91413400840972e-06    6.21831938368887e-07
118                      20                       4                2.828427   -1.90378589928154e-07     1.6529837296887e-06    1.03282879970212e-06
119                      20                       4                       0   -2.33350246624119e-09    1.96993805461591e-08    1.81473099523598e-08
120                      22                       6                5.656854   -2.50665465370827e-05    9.86350358475799e-05    4.01637471593653e-05
121                      22                       6                2.828427   -4.96929084118726e-07    1.90800732212373e-06    1.48248516672278e-06
122                      22                       6                       0   -1.45132511868671e-07    5.40162704081602e-07    6.11602051844635e-07
123                      24                       4                5.656854   -1.88579101570443e-07    5.34520977020412e-07    1.69011222567607e-07
124                      24                       4                2.828427   -1.84035200068346e-07     5.1588444267814e-07    3.14513592254834e-07
125                      24                       4                       0    -2.3158049351678e-09    6.62853116498083e-09    6.00031194973339e-09
126                      26                       6                5.656854   -6.45612533314313e-06     1.1241553508371e-05    4.33392395816579e-06
127                      26                       6                2.828427   -1.64230179337542e-07    2.81116473920893e-07    2.08776387425347e-07
128                      26                       6                       0   -5.95584790033867e-08     1.0027958352466e-07    1.09879526993564e-07
129                      28                       4                5.656854   -2.47044583461334e-08    3.84688456926981e-08    1.17588465689039e-08
130                      28                       4                2.828427   -2.90909748193776e-08     4.4891173236893e-08    2.66626504445037e-08
131                      28                       4                       0   -2.64969142090713e-10    4.26712690082202e-10    3.89596695200312e-10
132                      30                       6                5.656854   -2.91176665590261e-07    2.97440725375939e-07    1.10878388877813e-07
133                      30                       6                2.828427   -1.01195326452683e-08     1.0263676383957e-08    7.42570615011883e-09
134                      30                       6                       0   -3.93977655076999e-09    4.05582516327776e-09    4.43176149368603e-09
135                       0                       8                5.656854   -3.84972697483452e-08    2.78697577097702e-08    1.33459908491568e-08
136                       0                       8                2.828427   -4.46840765339393e-08    3.15215608660974e-08    2.92111271249497e-08
137                       0                       8                       0   -5.59425985715612e-10    3.60132343414566e-10    5.10679958722023e-10
138                       2                      10                5.656854    7.36423813772574e-07    3.95319835706882e-07    2.65607655901672e-07
139                       2                      10                2.828427    2.39857180477962e-08     1.3149859573138e-08    1.69232493023905e-08
140                       2                      10                       0    9.72263840061557e-09    4.99738694976748e-09    9.98187549582352e-09
141                       4                       8                5.656854    3.28457732590375e-07    2.55989887792145e-07    1.24478148641742e-07
142                       4                       8                2.828427    3.12170495216719e-07    2.43182115012815e-07    2.27373591688794e-07
143                       4                       8                       0    4.03981497412092e-09     3.1476554038402e-09    4.35227683158938e-09
144                       6                      10                5.656854    9.51837674625406e-05     6.8075796215725e-05    4.84589531062517e-05
145                       6                      10                2.828427    1.66488844682472e-06    1.19452333090481e-06    1.60588924955804e-06
146                       6                      10                       0    4.34256635231805e-07    3.12342371775334e-07     6.0451446645871e-07
147                       8                       8                5.656854    1.20251136817617e-05    1.65936260781217e-05    8.39986213459624e-06
148                       8                       8                2.828427    7.05021341531397e-06    9.47714946541701e-06    9.18380753048472e-06
149                       8                       8                       0    5.93200978414946e-08    7.77700343649047e-08    1.09928692959282e-07
150                      10                      10                5.656854     0.00197005091356037     0.00309370886682196     0.00236402449078441
151                      10                      10                2.828427    1.86208270256017e-05    2.76559141852249e-05    3.95305778205702e-05
152                      10                      10                       0     2.9264288489528e-06    4.12580333908987e-06    8.39437980619007e-06
153                      12                       8                5.656854     6.2948214118023e-05    0.000198825951242412    0.000109471061150873
154                      12                       8                2.828427    2.50142966141946e-05    7.69946711887485e-05    7.95440143748701e-05
155                      12                       8                       0    1.55129011916558e-07    4.57862504623196e-07    6.79227555980291e-07
156                      14                      10                5.656854     0.00238569592406059       0.013564375722956      0.0116848138204874
157                      14                      10                2.828427    1.85502473014341e-05    0.000100339485429233     0.00015797766279027
158                      14                      10                       0    2.54610228027114e-06    1.21033505495061e-05    2.63481928182062e-05
159                      16                       8                5.656854    1.00879275304825e-05    0.000419043327574515    0.000240374323560707
160                      16                       8                2.828427    5.19458091402667e-06    0.000145835690876403    0.000156339203486147
161                      16                       8                       0    3.81712792194262e-08    8.03061497234213e-07    1.22857032121579e-06
162                      18                      10                5.656854   -0.000250238666756744      0.0155372582224974      0.0136592116537049
163                      18                      10                2.828427   -3.14797800197222e-06    0.000114738198266429    0.000184020570285179
164                      18                      10                       0   -6.44379191778608e-07    1.39238936811731e-05     3.0800276709067e-05
165                      20                       8                5.656854   -4.51129877862495e-05    0.000361461472638269    0.000205049600494672
166                      20                       8                2.828427   -1.77745501246034e-05    0.000126215231670352    0.000133888872750193
167                      20                       8                       0   -1.10309773567732e-07    6.98325401872844e-07    1.05822069998347e-06
168                      22                      10                5.656854    -0.00334921737791154     0.00888538451188916     0.00731266408366438
169                      22                      10                2.828427   -2.64413519775329e-05    6.77338858180747e-05    0.000102323640433597
170                      22                      10                       0   -3.60332865127492e-06    8.68820299254702e-06    1.83619968571313e-05
171                      24                       8                5.656854   -3.82582508545857e-05    7.92066012573728e-05    4.17033451231331e-05
172                      24                       8                2.828427   -1.79667918443071e-05    3.59312818204059e-05    3.59242067680485e-05
173                      24                       8                       0   -1.25111295373405e-07    2.41243629295763e-07    3.49209713206146e-07
174                      26                      10                5.656854   -0.000683943362266308    0.000719216716376122     0.00052792658357654
175                      26                      10                2.828427   -8.11857179995654e-06    8.31389698073158e-06    1.14823480443143e-05
176                      26                      10                       0   -1.54344058628295e-06    1.54277390272575e-06    3.05276438964566e-06
177                      28                       8                5.656854   -2.82951670775442e-06     2.9166756376066e-06    1.44410882465939e-06
178                      28                       8                2.828427     -2.067224739839e-06    2.10815705214233e-06    2.00238633108881e-06
179                      28                       8                       0   -2.12527328274383e-08    2.14666594324159e-08    2.98459594334973e-08
180                      30                      10                5.656854   -1.20958993927177e-05    6.84037211765098e-06    4.73270338962628e-06
181                      30                      10                2.828427   -2.91648129401469e-07     1.6659133434881e-07    2.18846594747754e-07
182                      30                      10                       0   -1.02032621745466e-07     5.8869042854507e-08    1.12099906981496e-07
183                       0                      12                5.656854   -4.84664363763345e-07    1.53092403433856e-07    1.65253837004711e-07
184                       0                      12                2.828427   -4.53091238454525e-07     1.5081109504095e-07    3.06291036638073e-07
185                       0                      12                       0   -5.95079958167436e-09    1.95400632588349e-09     5.8327946751092e-09
186                       2                      14                5.656854    3.84761684641754e-06    5.88031745706426e-07    1.35363064178072e-06
187                       2                      14                2.828427    1.09771767653433e-07    1.81408215938675e-08    7.73525998473187e-08
188                       2                      14                       0    4.48098311477339e-08    7.64956485509002e-09    4.76084271843446e-08
189                       4                      12                5.656854    5.80729190285403e-06    1.96286290561676e-06    2.23137233011946e-06
190                       4                      12                2.828427    4.04198999353617e-06    1.41401753664049e-06    2.98215148281193e-06
191                       4                      12                       0    3.94318788818668e-08    1.42528884225475e-08     4.2620255093774e-08
192                       6                      14                5.656854    0.000876268673649696    0.000157886565256253    0.000450709743184047
193                       6                      14                2.828427    1.10090725902977e-05    2.21593156507095e-06     1.0760043302485e-05
194                       6                      14                       0      2.126989652247e-06    4.62483214973326e-07    3.00102521052868e-06
195                       8                      12                5.656854    0.000583175163750372    0.000350030024861513    0.000448937894157794
196                       8                      12                2.828427    0.000155231532499706    9.55451056479452e-05    0.000218547022167797
197                       8                      12                       0    7.16450868821727e-07     4.4570014336974e-07    1.40721745345621e-06
198                      10                      14                5.656854    0.000129100569099173     0.00662771697254114     -0.0107644146166526
199                      10                      14                2.828427    0.000153938389716973    6.67140745747528e-05    0.000370017037624084
200                      10                      14                       0    1.51466514708321e-05      6.731648088388e-06    4.74494593977889e-05
201                      12                      12                5.656854     0.00285822207693467     0.00470142429294966     0.00670509108662163