ITEM: TIMESTEP
0
ITEM: NUMBER OF ATOMS
422
ITEM: BOX BOUNDS ff ff ff
0.0000000000000000e+00 2.3200000000000000e+02
0.0000000000000000e+00 2.3200000000000000e+02
0.0000000000000000e+00 2.3200000000000000e+02
ITEM: ATOMS id xu yu zu fx fy fz
1        113.131435064012        115.969023685851        108.642356870173        1.26861551337013       0.651872815632476       0.325148984365814
2        118.852407070332        116.014148471895        108.681776230261      -0.116992567425239      0.0648486064896433       0.162085464362867
3        117.406346315085        115.991796433933        108.660855321168      -0.740764746773606       -1.35794432044738      -0.280103827233475
4        114.597581818638        116.011461722624        108.683363779689       -4.28431720077772       -4.26896913539994      -0.863123349757267
5        116.662946945342        114.711596627736        108.618725777572        3.80058698793062        3.58129914096798       0.673418392509298
6        115.258903457197        114.732369075041        108.640930466329        1.82903888517945        2.63224116559404       0.400245176591182
7        115.257458399669        117.208138740029        108.641970534642        2.80030139146747        2.85409865981826        0.64428627194815
8        116.697543846896        117.223408252057        108.655807805475       -1.87026092636341       -2.27962645802212      -0.349385682382657
9        114.548028200905        113.578717521323        108.687125280147       -4.28145367002464       -3.80000412978915      -0.747041351160706
10        117.469450847105        113.560298768259        108.665751364373       -4.12949021465698       -4.09434512284571      -0.773616892976549
11        114.530313391498        118.438795492618        108.674303840725       -1.41161633990205       -1.65946178778781      -0.253918713674279
12        117.410855855929        118.379496559453        108.612049745274        2.69938539606298        2.52971651570988       0.414574683664404
13        113.107322629427        113.542455957088        108.636865369191        2.09943198997656        1.18666138469613       0.282384518737617
14        113.138993030323        118.421098984484         108.67339822221      -0.933107654996976         -1.284341554058       -0.17587144978661
15        118.805551386449        113.522775453853        108.611437160281        5.01193203745109        5.43812088943092        0.96917962166521
16        118.827620559327        118.391817258411        108.638368787831       0.541369912613606        1.70075660509869       0.225419728439901
17        112.427499933268        117.195024038769        108.657558095129      -0.999167026758513       -1.18625207006306      -0.513234532809461
18        112.386583580847        114.728634337171        108.614208522108        2.87985435415245         2.4599317752652       0.338159887786409
19        119.565243727266        114.797049642846        108.675476530574       -1.88701981539625       -2.61398200236742       -0.29955123382484
20        119.591997103561        117.249276371493        108.704663128533       -4.57944203302972       -4.23375599050913      -0.747440924656112
21        120.985033998958        114.854334062156        108.686752976334       -3.61915093581199       -4.03887632141247      -0.448277771321242
22        120.938987864482        117.144484731807        108.643050502231        5.09123206490605        5.90805840340205       0.856532134477968
23        111.017195712452        114.811028868784        108.653424039291      -0.971203221111661      -0.748404183441193      -0.113000154639746
24        110.988649758459        117.118679717588        108.627221745314        5.86275845502887        6.52437007826862        0.97702360413252
25        121.554693094741         115.95996371212        108.624820634002        3.00578610262693        4.19008435856897       0.229918595570566
26         110.41960646436        116.013665868553        108.689769889889       -4.34591391456489        -4.6568698841207      -0.415300002021256
27        121.649271829186        118.225997924288        108.696929783362       -2.65517659478165       -4.67848262228564      -0.575882799578551
28        121.643862041852        113.828381324847        108.687113755152       0.124776171980952       0.191223356659998      0.0546197197492099
29        110.379431875242        118.194242611811        108.676471124514       -1.05050997735134       -2.07720081166675      -0.270496754715048
30        110.348085256556        113.770689183025        108.640718266295      0.0581776964816129        1.47312083109503       0.161555004167012
31        112.600349625314        112.615937603165        108.657336803072      -0.313908260536932      -0.847585529989899     -0.0565892456461856
32        112.560956168671        119.318335989281        108.624706668071       0.268550918643903       0.760502094267874       0.129763356306578
33        119.412256012001        112.654206213681         108.68879647905      -0.560894423012252       -1.23257698048137      -0.248607302546847
34        119.356742229714         119.34048428296        108.640046022571      -0.313383301398251       0.126237043542783     -0.0846294405620209
35        114.930862477778        112.537536468791        108.625429904911       0.408202067350661        1.23645972339253       0.264832131028498
36          114.9535446982        119.399841735659        108.654973589518       0.438665241928853       0.652044428706558      0.0237519066406425
37        116.986530367173        112.539563352891        108.625392443152       0.970011239058893        1.41070866495981       0.260257837776545
38         116.99292747867        119.385583511724        108.638651021139     -0.0949036015369997      -0.513677636879704      -0.177085590627536
39                     100                     100              105.656854                       0                       0                       0
40                     100                     100              102.828427                       0                       0                       0
41                     100                     100                     100                       0                       0                       0
42                     102                     102              105.656854                       0                       0                       0
43                     102                     102              102.828427                       0                       0                       0
44                     102                     102                     100                       0                       0                       0
45                     104                     100              105.656854                       0                       0                       0
46                     104                     100              102.828427                       0                       0                       0
47                     104                     100                     100                       0                       0                       0
48                     106                     102              105.656854                       0                       0                       0
49                     106                     102              102.828427                       0                       0                       0
50                     106                     102                     100                       0                       0                       0
51                     108                     100              105.656854                       0                       0                       0
52                     108                     100              102.828427                       0                       0                       0
53                     108                     100                     100                       0                       0                       0
54                     110                     102              105.656854                       0                       0                       0
55                     110                     102              102.828427                       0                       0                       0
56                     110                     102                     100                       0                       0                       0
57                     112                     100              105.656854                       0                       0                       0
58                     112                     100              102.828427                       0                       0                       0
59                     112                     100                     100                       0                       0                       0
60                     114                     102              105.656854                       0                       0                       0
61                     114                     102              102.828427                       0                       0                       0
62                     114                     102                     100                       0                       0                       0
63                     116                     100              105.656854                       0                       0                       0
64                     116                     100              102.828427                       0                       0                       0
65                     116                     100                     100                       0                       0                       0
66                     118                     102              105.656854                       0                       0                       0
67                     118                     102              102.828427                       0                       0                       0
68                     118                     102                     100                       0                       0                       0
69                     120                     100              105.656854                       0                       0                       0
70                     120                     100              102.828427                       0                       0                       0
71                     120                     100                     100                       0                       0                       0
72                     122                     102              105.656854                       0                       0                       0
73                     122                     102              102.828427                       0                       0                       0
74                     122                     102                     100                       0                       0                       0
75                     124                     100              105.656854                       0                       0                       0
76                     124                     100              102.828427                       0                       0                       0
77                     124                     100                     100                       0                       0                       0
78                     126                     102              105.656854                       0                       0                       0
79                     126                     102              102.828427                       0                       0                       0
80                     126                     102                     100                       0                       0                       0
81                     128                     100              105.656854                       0                       0                       0
82                     128                     100              102.828427                       0                       0                       0
83                     128                     100                     100                       0                       0                       0
84                     130                     102              105.656854                       0                       0                       0
85                     130                     102              102.828427                       0                       0                       0
86                     130                     102                     100                       0                       0                       0
87                     100                     104              105.656854                       0                       0                       0
88                     100                     104              102.828427                       0                       0                       0
89                     100                     104                     100                       0                       0                       0
90                     102                     106              105.656854                       0                       0                       0
91                     102                     106              102.828427                       0                       0                       0
92                     102                     106                     100                       0                       0                       0
93                     104                     104              105.656854                       0                       0                       0
94                     104                     104              102.828427                       0                       0                       0
95                     104                     104                     100                       0                       0                       0
96                     106                     106              105.656854                       0                       0                       0
97                     106                     106              102.828427                       0                       0                       0
98                     106                     106                     100                       0                       0                       0
99                     108                     104              105.656854                       0                       0                       0
100                     108                     104              102.828427                       0                       0                       0
101                     108                     104                     100                       0                       0                       0
102                     110                     106              105.656854                       0                       0                       0
103                     110                     106              102.828427                       0                       0                       0
104                     110                     106                     100                       0                       0                       0
105                     112                     104              105.656854                       0                       0                       0
106                     112                     104              102.828427                       0                       0                       0
107                     112                     104                     100                       0                       0                       0
108                     114                     106              105.656854                       0                       0                       0
109                     114                     106              102.828427                       0                       0                       0
110                     114                     106                     100                       0                       0                       0
111                     116                     104              105.656854                       0                       0                       0
112                     116                     104              102.828427                       0                       0                       0
113                     116                     104                     100                       0                       0                       0
114                     118                     106              105.656854                       0                       0                       0
115                     118                     106              102.828427                       0                       0                       0
116                     118                     106                     100                       0                       0                       0
117                     120                     104              105.656854                       0                       0                       0
118                     120                     104              102.828427                       0                       0                       0
119                     120                     104                     100                       0                       0                       0
120                     122                     106              105.656854                       0                       0                       0
121                     122                     106              102.828427                       0                       0                       0
122                     122                     106                     100                       0                       0                       0
123                     124                     104              105.656854                       0                       0                       0
124                     124                     104              102.828427                       0                       0                       0
125                     124                     104                     100                       0                       0                       0
126                     126                     106              105.656854                       0                       0                       0
127                     126                     106              102.828427                       0                       0                       0
128                     126                     106                     100                       0                       0                       0
129                     128                     104              105.656854                       0                       0                       0
130                     128                     104              102.828427                       0                       0                       0
131                     128                     104                     100                       0                       0                       0
132                     130                     106              105.656854                       0                       0                       0
133                     130                     106              102.828427                       0                       0                       0
134                     130                     106                     100                       0                       0                       0
135                     100                     108              105.656854                       0                       0                       0
136                     100                     108              102.828427                       0                       0                       0
137                     100                     108                     100                       0                       0                       0
138                     102                     110              105.656854                       0                       0                       0
139                     102                     110              102.828427                       0                       0                       0
140                     102                     110                     100                       0                       0                       0
141                     104                     108              105.656854                       0                       0                       0
142                     104                     108              102.828427                       0                       0                       0
143                     104                     108                     100                       0                       0                       0
144                     106                     110              105.656854                       0                       0                       0
145                     106                     110              102.828427                       0                       0                       0
146                     106                     110                     100                       0                       0                       0
147                     108                     108              105.656854                       0                       0                       0
148                     108                     108              102.828427                       0                       0                       0
149                     108                     108                     100                       0                       0                       0
150                     110                     110              105.656854                       0                       0                       0
151                     110                     110              102.828427                       0                       0                       0
152                     110                     110                     100                       0                       0                       0
153                     112                     108              105.656854                       0                       0                       0
154                     112                     108              102.828427                       0                       0                       0
155                     112                     108                     100                       0                       0                       0
156                     114                     110              105.656854                       0                       0                       0
157                     114                     110              102.828427                       0                       0                       0
158                     114                     110                     100                       0                       0                       0
159                     116                     108              105.656854                       0                       0                       0
160                     116                     108              102.828427                       0                       0                       0
161                     116                     108                     100                       0                       0                       0
162                     118                     110              105.656854                       0                       0                       0
163                     118                     110              102.828427                       0                       0                       0
164                     118                     110                     100                       0                       0                       0
165                     120                     108              105.656854                       0                       0                       0
166                     120                     108              102.828427                       0                       0                       0
167                     120                     108                     100                       0                       0                       0
168                     122                     110              105.656854                       0                       0                       0
169                     122                     110              102.828427                       0                       0                       0
170                     122                     110                     100                       0                       0                       0
171                     124                     108              105.656854                       0                       0                       0
172                     124                     108              102.828427                       0                       0                       0
173                     124                     108                     100                       0                       0                       0
174                     126                     110              105.656854                       0                       0                       0
175                     126                     110              102.828427                       0                       0                       0
176                     126                     110                     100                       0                       0                       0
177                     128                     108              105.656854                       0                       0                       0
178                     128                     108              102.828427                       0                       0                       0
179                     128                     108                     100                       0                       0                       0
180                     130                     110              105.656854                       0                       0                       0
181                     130                     110              102.828427                       0                       0                       0
182                     130                     110                     100                       0                       0                       0
183                     100                     112              105.656854                       0                       0                       0
184                     100                     112              102.828427                       0                       0                       0
185                     100                     112                     100                       0                       0                       0
186                     102                     114              105.656854                       0                       0                       0
187                     102                     114              102.828427                       0                       0                       0
188                     102                     114                     100                       0                       0                       0
189                     104                     112              105.656854                       0                       0                       0
190                     104                     112              102.828427                       0                       0                       0
191                     104                     112                     100                       0                       0                       0
192                     106                     114              105.656854                       0                       0                       0
193                     106                     114              102.828427                       0                       0                       0
194                     106                     114                     100                       0                       0                       0
195                     108                     112              105.656854                       0                       0                       0
196                     108                     112              102.828427                       0                       0                       0
197                     108                     112                     100                       0                       0                       0
198                     110                     114              105.656854                       0                       0                       0
199                     110                     114              102.828427                       0                       0                       0
200                     110                     114                     100                       0                       0                       0
201                     112                     112              105.656854                       0                       0                       0