ITEM: TIMESTEP
0
ITEM: NUMBER OF ATOMS
422
ITEM: BOX BOUNDS pp pp pp
0.0000000000000000e+00 3.2000000000000000e+01
0.0000000000000000e+00 3.2000000000000000e+01
0.0000000000000000e+00 3.2000000000000000e+01
ITEM: ATOMS id xu yu zu fx fy fz
1        13.0459321938386        15.9835208156773                 8.65685    -0.00580354520778687    0.000487679447171417     0.00593554435221083
2        18.7274848400711        15.9892262416344                 8.65685      0.0058504110862853    0.000407567881384922       0.010300319686517
3         17.302344993917         15.987795112765                 8.65685    -0.00578668416625183    0.000474369394905858      0.0108751708532516
4         14.471072038949        15.9849519429358                 8.65685     0.00472790324733899    0.000691239807234295      0.0148993338298008
5        16.6010751677692        14.7497248501637                 8.65685      -0.020818205095044        0.01207257088723      0.0319073607089223
6        15.1748269908674        14.7482926087119                 8.65685      0.0263752692823479      0.0171159437206121      0.0503317646566605
7        15.1723418650276        17.2230222053877                 8.65685      0.0257027149841622     -0.0173433826921307      0.0488448513218123
8        16.5985900414216        17.2244544465825                 8.65685     -0.0202338340717501     -0.0121198147081714      0.0306673302228699
9        14.4177569207574        13.5484462411751                 8.65685      0.0254734473190574     -0.0275380513348765       0.157817566084259
10        17.3605534827313        13.5514014038861                 8.65685     -0.0337147679097048     -0.0236380292683529       0.134081422674399
11        14.4128635507729         18.421345651893                 8.65685      0.0256629648029649      0.0261911001626492       0.161214817310092
12        17.3556601106552        18.4243008141789                 8.65685     -0.0342937104476168      0.0225667061149186        0.13550304286061
13        13.0273112602358        13.5624445878976                 8.65685     -0.0366611240740222     -0.0165551782137871      0.0919224891815485
14        13.0224488081137        18.4045547622743                 8.65685     -0.0372628874887104      0.0154833555171015      0.0931599573823277
15         18.750968226168        13.5681922935721                 8.65685       0.036241392077503     -0.0208283910266273       0.121386596370365
16        18.7461057714963        18.4103024705805                 8.65685      0.0365871588598083      0.0201082119625191       0.123597995618907
17         12.326795838139        17.1943199436399                 8.65685     -0.0112585688923946    -0.00785143315463332      0.0150333086476223
18        12.3292290587396        14.7712798150634                 8.65685     -0.0117392276118247      0.0078328034521989      0.0160283649196504
19        19.4466211966922        14.7784271122721                 8.65685       0.018864604219043      0.0112556810457523      0.0275317027652909
20        19.4441879750283        17.2014672429596                 8.65685      0.0185585863199323     -0.0113519758080132       0.026915303305136
21        20.8551350226241        14.8244350858224                 8.65685     -0.0249696331393383      0.0182352424520807      0.0483331946949011
22        20.8527913622507        17.1582882295758                 8.65685     -0.0244802939329604     -0.0182145904210651      0.0470446194743422
23        10.9206256731611        14.8144588294926                 8.65685      0.0274758324217872      0.0243456898452961      0.0697358249612413
24        10.9182820131454        17.1483119722736                 8.65685       0.026427514697344      -0.024538608010963      0.0667724804325047
25        21.4867264607395        15.9919970781177                 8.65685    -0.00176979735270595    0.000144106833104663    -0.00276056770017725
26        10.2866905744716        15.9807499786644                 8.65685     0.00113858998457427    0.000390196626307948    -0.00147947597011485
27         21.509196045824        18.1859221409264                 8.65685     -0.0132396943564649     0.00500104714329762       0.063319483479628
28        21.5136022867001        13.7981215696947                 8.65685     -0.0131040825864551    -0.00542409165488924      0.0632244564373712
29        10.2598147507275        18.1746254872963                 8.65685     0.00785168305243186     0.00527451873767756       0.072872943913983
30        10.2642209902605        13.7868249167297                 8.65685     0.00789558197572464    -0.00636804059464374      0.0718931310883373
31        12.4998668222426        12.6154548000933                 8.65685   -0.000467494674722197   -0.000386665093640432    -0.00949382028918678
32        12.4931035005993        19.3504833212092                 8.65685     -0.0005146087941502    0.000401735106932086    -0.00942815582165249
33        19.2803135329519        12.6222637346313                 8.65685    0.000705841167127537   -0.000803236964228354    -0.00877913983441986
34        19.2735502071424         19.357292260389                 8.65685    0.000757070302579116    0.000844490418695699    -0.00866991768639868
35        14.8622865728669        12.5689605638796                 8.65685     0.00086531187800356    -0.00167841224693031    -0.00731053380528109
36         14.855425108682        19.4017221461408                 8.65685    0.000938456290863957     0.00177528467343006    -0.00706028475393851
37        16.9179919240215        12.5710249097393                 8.65685   -0.000762194659569356    -0.00116348350583147    -0.00824094850790429
38         16.911130457531        19.4037864905846                 8.65685    -0.00081601166169563     0.00119614216195142    -0.00813400633550663
39                       0                       0                5.656854                       0                       0                       0
40                       0                       0                2.828427                       0                       0                       0
41                       0                       0                       0                       0                       0                       0
42                       2                       2                5.656854    5.99117413962698e-10    8.54489742138372e-10    2.17485694965883e-10
43                       2                       2                2.828427                       0                       0                       0
44                       2                       2                       0                       0                       0                       0
45                       4                       0                5.656854                       0                       0                       0
46                       4                       0                2.828427                       0                       0                       0
47                       4                       0                       0                       0                       0                       0
48                       6                       2                5.656854    1.87696565561174e-08    3.84659210891673e-08    9.93046203951357e-09
49                       6                       2                2.828427    6.86988978808279e-10    1.42809415857172e-09    7.21253187486529e-10
50                       6                       2                       0                       0                       0                       0
51                       8                       0                5.656854    6.89674668277573e-10    4.92827610760176e-11     4.9350133691387e-10
52                       8                       0                2.828427    4.01846559890724e-10     2.2687168517718e-11    5.20872164778969e-10
53                       8                       0                       0                       0                       0                       0
54                      10                       2                5.656854    7.88304144906627e-08    3.11252985146873e-07    8.22896870212125e-08
55                      10                       2                2.828427    2.83422011863669e-09    1.12551238923529e-08    5.77754237657238e-09
56                      10                       2                       0    9.64688534558565e-10    4.27861160328516e-09    3.32432851453226e-09
57                      12                       0                5.656854    1.33923794724515e-09    2.15481445760184e-10    2.25020478873543e-09
58                      12                       0                2.828427     1.6609531682597e-09    2.41443434308279e-10    5.29308402999179e-09
59                      12                       0                       0                       0                       0                       0
60                      14                       2                5.656854    4.57382779780357e-08    7.45629428960632e-07    2.00127725693621e-07
61                      14                       2                2.828427    1.55379305196719e-09    2.58373314469039e-08    1.34415660272704e-08
62                      14                       2                       0    7.44761396364064e-10    1.10049980642831e-08    8.62496516456294e-09
63                      16                       0                5.656854   -5.92078648648857e-11    2.79700548096146e-10    3.30230163279312e-09
64                      16                       0                2.828427   -8.18966744754077e-11    2.92147086818601e-10    7.23799669555717e-09
65                      16                       0                       0                       0                       0                       0
66                      18                       2                5.656854   -5.15624325109141e-08    7.27559557789998e-07    1.95159253164516e-07
67                      18                       2                2.828427   -1.77688332978941e-09    2.52662591914351e-08    1.31353586391434e-08
68                      18                       2                       0   -8.69758227765585e-10    1.07644755991753e-08     8.4327961236697e-09
69                      20                       0                5.656854   -1.34658656132469e-09    2.12041882872912e-10    2.13198998945944e-09
70                      20                       0                2.828427   -1.53963932837601e-09    1.23213167314216e-09    4.59841777901919e-09
71                      20                       0                       0                       0                       0                       0
72                      22                       2                5.656854   -7.53655532092014e-08    2.83069017593867e-07     7.4764799760124e-08
73                      22                       2                2.828427   -2.67585874149842e-09    1.01774539158969e-08    5.22568516223623e-09
74                      22                       2                       0   -9.63133696500929e-10    3.99189754508892e-09     3.0969592328857e-09
75                      24                       0                5.656854    -6.4637374970653e-10    2.89561171049815e-11    4.43494030876745e-10
76                      24                       0                2.828427   -3.77413071058748e-10    1.48147317311048e-11     4.6574543334809e-10
77                      24                       0                       0                       0                       0                       0
78                      26                       2                5.656854   -1.62855469598061e-08    3.21596599292858e-08     8.3138279874127e-09
79                      26                       2                2.828427   -5.78229430407057e-10    1.19318693872557e-09    5.99641911407929e-10
80                      26                       2                       0                       0                       0                       0
81                      28                       0                5.656854                       0                       0                       0
82                      28                       0                2.828427                       0                       0                       0
83                      28                       0                       0                       0                       0                       0
84                      30                       2                5.656854   -4.97886257014521e-10    6.92180921350373e-10     1.7600598392386e-10
85                      30                       2                2.828427                       0                       0                       0
86                      30                       2                       0                       0                       0                       0
87                       0                       4                5.656854    3.86368727427278e-11     3.0764144905328e-10    9.42552402903924e-11
88                       0                       4                2.828427                       0                       0                       0
89                       0                       4                       0                       0                       0                       0
90                       2                       6                5.656854    1.11174846431364e-07    1.01979549168401e-07    3.79775216562154e-08
91                       2                       6                2.828427    4.09174413109311e-09    3.74777519020834e-09    2.71166378642402e-09
92                       2                       6                       0    1.16937078408444e-09    1.10182019202242e-09    1.22492700571918e-09
93                       4                       4                5.656854    1.20820715240457e-08    1.66954376788081e-08    5.09017264339614e-09
94                       4                       4                2.828427    1.44911215524782e-08    2.02696755338392e-08    1.19505983871615e-08
95                       4                       4                       0    1.56788180725443e-10     2.2047067848035e-10    2.00454670275375e-10
96                       6                       6                5.656854     3.5334796606523e-06    5.31097275285908e-06    2.02759315737934e-06
97                       6                       6                2.828427    9.68906455406502e-08    1.43448015884571e-07    1.05639116750052e-07
98                       6                       6                       0    3.76918811118868e-08    5.52238414988065e-08    6.00806440862469e-08
99                       8                       4                5.656854    1.34341485538665e-07    3.20903451603605e-07    1.00575579640913e-07
100                       8                       4                2.828427    1.36447718070369e-07    3.22738396521662e-07    1.95379309238066e-07
101                       8                       4                       0     1.8330510943951e-09    4.39713553182256e-09    3.94769473854385e-09
102                      10                       6                5.656854    2.20890428900723e-05    6.74001165857899e-05     2.7129258790306e-05
103                      10                       6                2.828427    4.56986482593238e-07    1.37022699516682e-06    1.05426397056729e-06
104                      10                       6                       0    1.37873320906805e-07    4.04368018057031e-07    4.54554912635143e-07
105                      12                       4                5.656854    2.56861108602384e-07    1.59841846201711e-06    5.17231366828733e-07
106                      12                       4                2.828427    2.31709408751004e-07    1.39657446501348e-06    8.69425181179379e-07
107                      12                       4                       0    2.90964994877604e-09     1.7060078331147e-08    1.56323122949888e-08
108                      14                       6                5.656854    1.13239992416306e-05    0.000184176705464125    7.65798793925665e-05
109                      14                       6                2.828427    2.34570818027222e-07    3.33475476788936e-06    2.64306049564822e-06
110                      14                       6                       0    7.08430906061722e-08    8.87917285125409e-07    1.02359122965391e-06
111                      16                       4                5.656854   -9.35588818154324e-09    2.33999935467328e-06    7.64492454231645e-07
112                      16                       4                2.828427   -8.75254365132072e-09    2.00432940592231e-06    1.25943427000034e-06
113                      16                       4                       0   -1.15737700157066e-10    2.37839797107251e-08    2.20187708940561e-08
114                      18                       6                5.656854   -1.31324017573259e-05    0.000179886616757541    7.47070194637602e-05
115                      18                       6                2.828427   -2.68326403501598e-07    3.26175864148581e-06    2.58229009237627e-06
116                      18                       6                       0   -8.02821909748489e-08    8.69977685387905e-07     1.0018209295737e-06
117                      20                       4                5.656854   -2.62678447708749e-07    1.50582060866226e-06    4.86488010390417e-07
118                      20                       4                2.828427   -2.36965431496538e-07    1.32184940109681e-06    8.21755946897895e-07
119                      20                       4                       0   -2.96340924660783e-09    1.61015230218487e-08    1.47622236799502e-08
120                      22                       6                5.656854   -2.08505610102104e-05    6.03519842377307e-05    2.42010785340998e-05
121                      22                       6                2.828427   -4.37538759672592e-07    1.24498130409793e-06    9.54843271723871e-07
122                      22                       6                       0   -1.33823600424684e-07    3.72553061468836e-07    4.17625590004356e-07
123                      24                       4                5.656854    -1.2133035570081e-07    2.79163695027271e-07    8.72555736619396e-08
124                      24                       4                2.828427     -1.241749805161e-07    2.83481637801536e-07    1.71243833532119e-07
125                      24                       4                       0   -1.68886706003644e-09    3.83961704767148e-09    3.45612932205538e-09
126                      26                       6                5.656854   -2.99901742649784e-06    4.36463674319229e-06    1.66122755778564e-06
127                      26                       6                2.828427   -8.35504218621086e-08    1.20073172897984e-07    8.81800953145454e-08
128                      26                       6                       0   -3.24795392052512e-08    4.58420913767019e-08    5.01531104917555e-08
129                      28                       4                5.656854    -1.0048295338657e-08    1.35336552655687e-08    4.11792074679769e-09
130                      28                       4                2.828427   -1.22618173753178e-08    1.67017742371101e-08    9.82869999126327e-09
131                      28                       4                       0     -9.850549707939e-11    1.48798898607168e-10    1.31467009900306e-10
132                      30                       6                5.656854   -8.59003183052056e-08    7.84863109464027e-08    2.91560474112456e-08
133                      30                       6                2.828427   -3.28776802844222e-09    2.94571975413741e-09    2.12714125686484e-09
134                      30                       6                       0   -9.70216433305721e-10    8.91528532062128e-10    9.89703572046796e-10
135                       0                       8                5.656854    3.08253436564542e-09    1.29392416723672e-08    6.16050628965572e-09
136                       0                       8                2.828427    3.22885206602259e-09    1.46591882926618e-08     1.3734747620497e-08
137                       0                       8                       0    3.09072255159952e-11    1.49975499946308e-10    2.24165838739489e-10
138                       2                      10                5.656854    3.69463503197759e-06    1.88949402031326e-06    1.29133966975762e-06
139                       2                      10                2.828427    1.03113881568209e-07    5.32672742028675e-08    6.94187558999194e-08
140                       2                      10                       0    4.08790339964856e-08    2.12973707182189e-08     4.0527809219182e-08
141                       4                       8                5.656854    1.13942297972742e-06      1.026082499441e-06    5.04114810152654e-07
142                       4                       8                2.828427    9.38447527897804e-07    8.41238674299831e-07    7.93416116815457e-07
143                       4                       8                       0    1.07915510015017e-08    9.61864557599793e-09    1.33321530236866e-08
144                       6                      10                5.656854      0.0003084986457438    0.000268388588100418    0.000194456181515586
145                       6                      10                2.828427    4.31700699039553e-06    3.72078621701443e-06    5.07807524613486e-06
146                       6                      10                       0    9.37141518374265e-07    7.99438676741336e-07     1.5660455931975e-06
147                       8                       8                5.656854    2.46329484499816e-05    4.22960276605975e-05     2.1831482612153e-05
148                       8                       8                2.828427    1.27204087715992e-05    2.10864246187085e-05    2.07692886993245e-05
149                       8                       8                       0        9.5715287145e-08    1.53481843863411e-07    2.19720170812789e-07
150                      10                      10                5.656854       0.002928998861765     0.00601528042608268     0.00479023524954486
151                      10                      10                2.828427    2.46426220211801e-05    4.84627461431889e-05    7.13576746655861e-05
152                      10                      10                       0    3.54570078840344e-06    6.57041037162347e-06    1.36526824707056e-05
153                      12                       8                5.656854    6.12375730583536e-05    0.000296829604463681    0.000166843196011591
154                      12                       8                2.828427    2.32729028301192e-05    0.000106709410031839    0.000112151139573445
155                      12                       8                       0    1.40403407247542e-07    6.02828053952487e-07    9.06378121497333e-07
156                      14                      10                5.656854     0.00088778377450651      0.0151749006654701      0.0132955585130561
157                      14                      10                2.828427    8.78507648107897e-06    0.000111619793497087    0.000178170413505969
158                      14                      10                       0    1.43357362809404e-06     1.3416008947022e-05     2.9544161523476e-05
159                      16                       8                5.656854   -1.22998599710903e-06    0.000423148055701788     0.00024322166552828
160                      16                       8                2.828427   -6.17069087441735e-07    0.000148023286130054    0.000158915854927379
161                      16                       8                       0   -4.45907219323228e-09    8.17609682832331e-07    1.25245811336211e-06
162                      18                      10                5.656854    -0.00116451540534614      0.0149703916345675      0.0130842822567478
163                      18                      10                2.828427   -1.06318582498389e-05    0.000109985625451675    0.000175109253698492
164                      18                      10                       0    -1.6531719962678e-06     1.3213109113855e-05    2.90325872007906e-05
165                      20                       8                5.656854   -6.30474053375934e-05    0.000277227969123729    0.000155218175498875
166                      20                       8                2.828427   -2.40383460905359e-05    0.000100924684218437    0.000105699412331464
167                      20                       8                       0   -1.45316563752311e-07    5.75256078516394e-07    8.62370960031285e-07
168                      22                      10                5.656854    -0.00274983104069454     0.00535950710013329     0.00422657689936974
169                      22                      10                2.828427   -2.36498062051417e-05    4.39842019770837e-05    6.42944876036593e-05
170                      22                      10                       0   -3.45758216038801e-06    6.06432359119708e-06    1.25358737025162e-05
171                      24                       8                5.656854   -2.16574210545384e-05    3.56494473050936e-05    1.83047933683006e-05
172                      24                       8                2.828427   -1.14639343164646e-05     1.8240693772169e-05    1.78883400153384e-05
173                      24                       8                       0   -8.78801288950792e-08    1.35589877472551e-07    1.93492166264932e-07
174                      26                      10                5.656854   -0.000249094400753799    0.000208679358626546    0.000150408597145222
175                      26                      10                2.828427   -3.63805190802134e-06    3.02736492009949e-06    4.11300225611045e-06
176                      26                      10                       0    -8.1794892038213e-07    6.75207067551318e-07    1.31754645044072e-06
177                      28                       8                5.656854    -9.0344039109995e-07    7.91448121248289e-07    3.87559276854978e-07
178                      28                       8                2.828427    -7.6517062096048e-07    6.67808897822811e-07     6.2816643132816e-07
179                      28                       8                       0   -9.08423449140909e-09    7.88911580957942e-09    1.09037669730845e-08
180                      30                      10                5.656854   -2.76919431437375e-06    1.39371179733353e-06    9.48056192571911e-07
181                      30                      10                2.828427   -7.96062314070867e-08    4.07063696133563e-08    5.28241632036652e-08
182                      30                      10                       0    -3.2930735042181e-08    1.67996250245598e-08    3.18559642403653e-08
183                       0                      12                5.656854    3.66159238107696e-08    6.17435162918399e-08    6.52284079544212e-08
184                       0                      12                2.828427    3.70409174383205e-08    6.89384844909863e-08    1.38184667515368e-07
185                       0                      12                       0    5.92022993716472e-10    9.62111032502979e-10     2.8243336319468e-09
186                       2                      14                5.656854    2.19000590805296e-05    3.15348320185347e-06    7.66096990500192e-06
187                       2                      14                2.828427    5.20635322067545e-07    7.96071784110564e-08    3.51991342834854e-07
188                       2                      14                       0    1.77255327668453e-07    2.85179853339098e-08    1.75343773828105e-07
189                       4                      12                5.656854    2.67253976034887e-05    1.02750321187979e-05    1.21129098972843e-05
190                       4                      12                2.828427    1.44172008462484e-05    5.76725840233177e-06    1.24642741844472e-05
191                       4                      12                       0    1.12261764986368e-07    4.64417038211373e-08    1.40949589764243e-07
192                       6                      14                5.656854     0.00351757901509782    0.000739137711158525     0.00226242551188055
193                       6                      14                2.828427    3.20705517435032e-05    7.63307403648601e-06    3.86860963945494e-05
194                       6                      14                       0    4.81018133495883e-06    1.24140636248338e-06    8.24448998005473e-06
195                       8                      12                5.656854     0.00139591310393171     0.00112518780260844     0.00147127838553681
196                       8                      12                2.828427    0.000300085189944234    0.000238256547671236    0.000558302499854151
197                       8                      12                       0    1.17471111416997e-06    9.16366605285833e-07    2.95112683653586e-06
198                      10                      14                5.656854     -0.0184790906244793      -0.010646649136776      -0.151028923774306
199                      10                      14                2.828427    0.000182292815197129    0.000114458681435041    0.000662935798134588
200                      10                      14                       0    1.72147446071695e-05    1.04652746838505e-05    7.62574554312925e-05
201                      12                      12                5.656854     0.00170467723682289     0.00552704742284934     0.00776727465889821