ITEM: TIMESTEP
0
ITEM: NUMBER OF ATOMS
422
ITEM: BOX BOUNDS ff ff ff
0.0000000000000000e+00 2.3200000000000000e+02
0.0000000000000000e+00 2.3200000000000000e+02
0.0000000000000000e+00 2.3200000000000000e+02
ITEM: ATOMS id xu yu zu fx fy fz
1        113.145932193839        115.983520815677              108.356854     -0.0134823941411082    0.000131857877294375      0.0561838116413138
2        118.827484840071        115.989226241634              108.356854      0.0107175841112158   -0.000318411020927237      0.0576181020217988
3        117.402344993917        115.987795112765              108.356854     -0.0079274925548676     0.00422331110710439        0.06913196390494
4        114.571072038949        115.984951942936              108.356854      0.0136764769761716      0.0046114387326035      0.0703945165895739
5        116.701075167769        114.749724850164              108.356854     -0.0563828360986458       0.038911208278976       0.136838976014586
6        115.274826990867        114.748292608712              108.356854      0.0659500325680776      0.0404828829982598       0.142156432584003
7        115.272341865028        117.223022205388              108.356854      0.0641742107571275     -0.0330359787702755        0.13881232035682
8        116.698590041422        117.224454446583              108.356854     -0.0546166938182605     -0.0311651946677264       0.132999934431761
9        114.517756920757        113.548446241175              108.356854      0.0901710937805962     -0.0893329629669827       0.444781412781562
10        117.460553482731        113.551401403886              108.356854      -0.111391066974139     -0.0878201396529294       0.439658111723172
11        114.512863550773        118.421345651893              108.356854      0.0912097843663654      0.0665531807823349       0.456175097091438
12        117.455660110655        118.424300814179              108.356854       -0.11277286574842      0.0656992194100994       0.446143605013919
13        113.127311260236        113.562444587898              108.356854      -0.100908170982846     -0.0667643284947913       0.318692720297098
14        113.122448808114        118.404554762274              108.356854      -0.102980624033592      0.0471166642543283       0.324352828580103
15        118.850968226168        113.568192293572              108.356854      0.0850932796700219     -0.0676103693296846       0.329675709778172
16        118.846105771496         118.41030247058              108.356854      0.0868914819765997      0.0501151503912187       0.336983147517662
17        112.426795838139         117.19431994364              108.356854     -0.0312399253400823     -0.0105995996855557      0.0886488335498587
18         112.42922905874        114.771279815063              108.356854     -0.0329348773994479      0.0202975575928173       0.091574677280788
19        119.546621196692        114.778427112272              108.356854      0.0446786422878796       0.021273994453352      0.0928135095789044
20        119.544187975028         117.20146724296              108.356854      0.0437829407383959     -0.0121831032152892      0.0913472000549383
21        120.955135022624        114.824435085822              108.356854       0.110809836967328        0.13800968118116       0.156203254750878
22        120.952791362251        117.158288229576              108.356854       0.109847106400449     -0.0357043900730417       0.149980094920708
23        111.020625673161        114.814458829493              108.356854      0.0104826438577996       0.141333271264512       0.182884378434054
24        111.018282013145        117.148311972274              108.356854     0.00883064446713427     -0.0329554907858182       0.174915955422936
25        121.586726460739        115.991997078118              108.356854     -0.0686659698206244     -0.0260790447546509      0.0233178925208608
26        110.386690574472        115.980749978664              108.356854    0.000804281151355002     -0.0267251831968992      0.0105801942327495
27        121.609196045824        118.185922140926              108.356854      -0.215917212545883     -0.0258622288379244       0.384039332058418
28          121.6136022867        113.798121569695              108.356854      -0.221550057113499        -0.1014488370619       0.373363149760462
29        110.359814750727        118.174625487296              108.356854      0.0631821567730247     -0.0369782851006903       0.359952492886816
30         110.36422099026         113.78682491673              108.356854      0.0667213710519249       -0.10337218238114       0.344495690521242
31        112.599866822243        112.615454800093              108.356854    -0.00974225850128092      0.0327326342674977      0.0272717616424662
32        112.593103500599        119.350483321209              108.356854    -0.00951740388491181      0.0097079511125426       0.021172915523215
33        119.380313532952        112.622263734631              108.356854      0.0526420844951407      0.0333960816566122      0.0211697172234687
34        119.373550207142        119.357292260389              108.356854      0.0504277522163606     0.00792946604586697      0.0153288917462086
35        114.962286572867         112.56896056388              108.356854     0.00101700633035867      0.0161953140028149     0.00904435938872455
36        114.955425108682        119.401722146141              108.356854    0.000999818192789381      0.0118755229101405     0.00529838309102136
37        117.017991924022        112.571024909739              108.356854      0.0260454089992941      0.0164716519474737     0.00828444910690004
38        117.011130457531        119.403786490585              108.356854      0.0250533209560092      0.0111953387619722     0.00476033478798144
39                     100                     100              105.656854       0.212170349697503        0.21403031947976      -0.975700422882238
40                     100                     100              102.828427       0.432013117477832       0.430370481060842    -0.00037144524351058
41                     100                     100                     100       0.212139357419121       0.213492248284436       0.976324546907782
42                     102                     102              105.656854      -0.344495103428151      -0.347685502083733      -0.277941610836818
43                     102                     102              102.828427     -0.0509036702942021     -0.0482035931491675     0.00068625637962354
44                     102                     102                     100      -0.344468180942126      -0.346564795756952       0.276832602262126
45                     104                     100              105.656854      0.0957329290045857       0.960156641499191      -0.808952018950808
46                     104                     100              102.828427     -0.0637050988484025       0.726614148490815   -0.000279087980054643
47                     104                     100                     100      0.0960938979430684       0.959511398112797       0.809385919262207
48                     106                     102              105.656854      -0.148986277753904      -0.515055971070339      -0.381441308137612
49                     106                     102              102.828427       0.142075779463527      0.0666693462407671    0.000392824962957647
50                     106                     102                     100      -0.149993064497297      -0.513847213428314       0.380878231040108
51                     108                     100              105.656854       0.109417752680902        1.06009518964247        -0.8018956283681
52                     108                     100              102.828427      -0.111398442816391       0.639868967503009    0.000242793570291701
53                     108                     100                     100       0.110468090891628        1.06003137795539        0.80143952982017
54                     110                     102              105.656854      -0.142863222071035      -0.581776397233213       -0.37387666089878
55                     110                     102              102.828427       0.147633116908564        0.13470730888935   -0.000949958022420105
56                     110                     102                     100      -0.145287724113039      -0.582527887676759       0.375497418569593
57                     112                     100              105.656854       0.131546162086968         1.1082596892772      -0.810622707085583
58                     112                     100              102.828427      -0.135322234496482       0.589619731853442     0.00115687166799499
59                     112                     100                     100       0.132716320822173        1.10972099007766       0.808675097079603
60                     114                     102              105.656854      -0.163655284067485      -0.618361845544277      -0.361485402719086
61                     114                     102              102.828427       0.168585493032647       0.174413652429283    -0.00265862278766468
62                     114                     102                     100      -0.165151087045626      -0.622395942082053       0.365807915396015
63                     116                     100              105.656854       0.166589104804294        1.14365469979663      -0.821153428292693
64                     116                     100              102.828427      -0.170772282187748       0.552536539607014     0.00166210147579889
65                     116                     100                     100       0.166587730135277         1.1460643042428       0.818394103730985
66                     118                     102              105.656854      -0.209644363446815      -0.650562731694802      -0.348052943906306
67                     118                     102              102.828427       0.214505376388028       0.207661308244552    -0.00265596840111612
68                     118                     102                     100      -0.208143754192447      -0.654589402383075       0.352371300677402
69                     120                     100              105.656854       0.223332998740575        1.18234376030676      -0.835190515654016
70                     120                     100              102.828427      -0.228765912289454       0.513111583777258      0.0011558713996926
71                     120                     100                     100       0.222163925922226        1.18380183541874       0.833244495222889
72                     122                     102              105.656854      -0.288988362329081      -0.687947828302334      -0.330347658290814
73                     122                     102              102.828427       0.293799925791072       0.244272794322604   -0.000948956688406872
74                     122                     102                     100      -0.286571844608194      -0.688695583997361       0.331966710584018
75                     124                     100              105.656854       0.326459058453675        1.23673740657593      -0.852093702182036
76                     124                     100              102.828427      -0.323115117216795       0.459485148541202    0.000244098296028436
77                     124                     100                     100       0.325412539304709        1.23667523610509       0.851635594113507
78                     126                     102              105.656854      -0.461773488417981      -0.727851623467381      -0.332010003497919
79                     126                     102              102.828427       0.397336658104638       0.281843725931353    0.000387888901469599
80                     126                     102                     100      -0.460771761134106      -0.726651680387627       0.331454476611944
81                     128                     100              105.656854       0.708297075567612        1.34080162544523      -0.754751958716306
82                     128                     100              102.828427      -0.280965055287909       0.395996559810345   -0.000275772679482399
83                     128                     100                     100       0.707937250031696        1.34016137624216         0.7551805503924
84                     130                     102              105.656854       -1.34059095111029      -0.708856160310451      -0.755382849829111
85                     130                     102              102.828427      -0.395857804900117       0.281137616519193    0.000680297169068747
86                     130                     102                     100       -1.34061650662107      -0.707744054339586       0.754283307596673
87                     100                     104              105.656854       0.959148016009436       0.100146580169649      -0.808474926633096
88                     100                     104              102.828427       0.727621685705522     -0.0673458867312153    -0.00104243899411106
89                     100                     104                     100       0.958566893215179      0.0988206448393232       0.810182303168375
90                     102                     106              105.656854      -0.513929163466658      -0.157348955368025       -0.38269403413323
91                     102                     106              102.828427      0.0653305735922785       0.148430607532521     0.00219267642114803
92                     102                     106                     100      -0.512501670579357      -0.154292051757867       0.379235983310548
93                     104                     104              105.656854       0.247174614552653       0.253141859006694      -0.388564643962097
94                     104                     104              102.828427      -0.179926226107109       -0.18463594309711    -0.00134903666895096
95                     104                     104                     100        0.24725807751582       0.250606008627543        0.39065667333598
96                     106                     106              105.656854      -0.233036369749986      -0.245614769772282      -0.504601092267651
97                     106                     106              102.828427       0.225078817289642       0.233838922952687     0.00278114537334219
98                     106                     106                     100      -0.233915551383093      -0.239349572164247       0.500343718226175
99                     108                     104              105.656854       0.172676573004127       0.338821279296218      -0.375235804265065
100                     108                     104              102.828427      -0.176738114479211      -0.268890224520677   -0.000322841736090011
101                     108                     104                     100       0.175755949398609       0.336768097798501       0.375608537407195
102                     110                     106              105.656854       -0.18021280416617      -0.293131045099679      -0.490067223616337
103                     110                     106              102.828427       0.190916587637371       0.285561517848051    -0.00109653517457837
104                     110                     106                     100      -0.190148948583642      -0.291697354813614       0.491986180642307
105                     112                     104              105.656854       0.166143606452218       0.378752929421318      -0.390817422550492
106                     112                     104              102.828427      -0.173448568240808      -0.313972855676117     0.00316130029373972
107                     112                     104                     100       0.171290682070918       0.383108773559008        0.38568503186275
108                     114                     106              105.656854      -0.186970799393061      -0.305315878069458      -0.466986926230431
109                     114                     106              102.828427       0.196625891314965        0.31034386308397     -0.0090847147735505
110                     114                     106                     100      -0.194630412246603       -0.32162507695273       0.482033772515445
111                     116                     104              105.656854        0.19820241641822       0.404045919997509      -0.406245260929649
112                     116                     104              102.828427      -0.203405514501741      -0.343209039375141     0.00549497747266952
113                     116                     104                     100       0.198190793055332        0.41337122963428       0.397460188823378
114                     118                     106              105.656854      -0.242279490554246        -0.3275768493627      -0.451101478627178
115                     118                     106              102.828427       0.244212628511522       0.333264667684166    -0.00906369662957897
116                     118                     106                     100      -0.234579285570694      -0.343824945441962       0.466111521075316
117                     120                     104              105.656854       0.261268752658557       0.435434182977129      -0.421536711717361
118                     120                     104              102.828427       -0.26554430165365      -0.372486992645816     0.00315225677629948
119                     120                     104                     100       0.256128387081777       0.439764974662613       0.416418782925132
120                     122                     106              105.656854      -0.319996787765536      -0.363128564683748      -0.438296406549356
121                     122                     106              102.828427       0.321012535317733       0.357827320428444    -0.00108774490689971
122                     122                     106                     100      -0.310121252106349       -0.36167290304218       0.440200919984437
123                     124                     104              105.656854       0.368552012212754       0.464118170068452      -0.438560680884767
124                     124                     104              102.828427      -0.362924572521598      -0.398097097869214    -0.00031800634445679
125                     124                     104                     100       0.365491879836414       0.462075839071281       0.438926146741299
126                     126                     106              105.656854      -0.466193166885441      -0.369885546247104      -0.441506743967467
127                     126                     106              102.828427       0.401255036669917       0.362066227544214      0.0027585576920049
128                     126                     106                     100      -0.465324585423464      -0.363670092264738       0.437285278270094
129                     128                     104              105.656854       0.727995895195331        0.46262772393637      -0.330712294245358
130                     128                     104              102.828427      -0.282670398904749      -0.397315865696214     -0.0013373969246329
131                     128                     104                     100       0.727911905727118       0.460111982422692       0.332786493958759
132                     130                     106              105.656854       -1.23646811914979       -0.32859673911039       -0.85352739525678
133                     130                     106              102.828427      -0.458874120571882       0.324162614394367     0.00217448814704197
134                     130                     106                     100        -1.2378822726324      -0.325565426599258       0.850097282481015
135                     100                     108              105.656854        1.06320699108956       0.116843249306208      -0.800062186743293
136                     100                     108              102.828427       0.638030001989996      -0.117120360878464     -0.0024899716707358
137                     100                     108                     100        1.06074656643343       0.114388040136861       0.804044212731678
138                     102                     110              105.656854      -0.590498838212198       -0.15606814159841      -0.378890897173322
139                     102                     110              102.828427        0.13913210902726       0.156717556026288      0.0054959983565591
140                     102                     110                     100      -0.583965526233172      -0.150760859676574       0.370303355218304
141                     104                     108              105.656854       0.338658066337082       0.190242696560995      -0.371251831827025
142                     104                     108              102.828427      -0.267258115041617      -0.188283655371221    -0.00503405717511941
143                     104                     108                     100       0.334766620254378       0.182459894756562       0.379101841625515
144                     106                     110              105.656854      -0.299711400186874      -0.221198412442942      -0.506437418363259
145                     106                     110              102.828427       0.283593548083249       0.211519102085836      0.0122281238655545
146                     106                     110                     100      -0.288385051119779      -0.199793756245855       0.484764421907568
147                     108                     108              105.656854       0.221295500903786       0.252657039741565      -0.358661847927308
148                     108                     108              102.828427      -0.228149523477381      -0.245179903001751    -0.00544495770575214
149                     108                     108                     100       0.227479719684443       0.236085038094252       0.368391336013136
150                     110                     110              105.656854      -0.173930764313065      -0.261828685618663      -0.491824165589484
151                     110                     110              102.828427       0.213350226450992       0.244242783106724     0.00601764309388864
152                     110                     110                     100      -0.220554782676558      -0.232636576927921       0.475017487914353
153                     112                     108              105.656854       0.172649491914431       0.254957680858154      -0.393480749412306
154                     112                     108              102.828427      -0.196206777681758      -0.268523215487279     0.00875165814524504
155                     112                     108                     100       0.200322807310678       0.266933134019358       0.377620378764852
156                     114                     110              105.656854      -0.174047825683024      -0.172078358916536      -0.379573768883977
157                     114                     110              102.828427        0.20682874719173       0.244222622770655      -0.029543113832519
158                     114                     110                     100      -0.212497937442764      -0.248554546447967       0.471142591871364
159                     116                     108              105.656854       0.220280517919447       0.245746845085801      -0.425538522974011
160                     116                     108              102.828427      -0.226122725893308      -0.279654946402641      0.0205744725968327
161                     116                     108                     100       0.220191687959927       0.285233792549317       0.387990670764424
162                     118                     110              105.656854      -0.289055540498685      -0.183393943939173      -0.362568993879348
163                     118                     110              102.828427       0.268622789998151       0.255596657919791      -0.029423252019978
164                     118                     110                     100      -0.250208698133134      -0.259532000710571       0.453755711589049
165                     120                     108              105.656854        0.30234172527836       0.288759786991263      -0.428171100986101
166                     120                     108              102.828427      -0.291985946033792      -0.303232445535998     0.00868343507018855
167                     120                     108                     100       0.274731579237978       0.300533116028153       0.412450006270691
168                     122                     110              105.656854      -0.362160096985938      -0.295495991688515      -0.435465939258544
169                     122                     110              102.828427       0.336195160060614       0.278849781149968     0.00606812911974495
170                     122                     110                     100      -0.316191342737522      -0.266139973040937       0.418573237342447
171                     124                     108              105.656854       0.375523948684056       0.322173108686029      -0.431067072827025
172                     124                     108              102.828427      -0.368782728645787      -0.317065123787309     -0.0054139050926615
173                     124                     108                     100       0.369434342257749        0.30571673741944       0.440717875850006
174                     126                     110              105.656854      -0.435795366683612      -0.276907449952296      -0.434921121261633
175                     126                     110              102.828427       0.380039197741094       0.269213156373315      0.0121302032487979
176                     126                     110                     100      -0.447039957773633      -0.255703410022991       0.413472396143113
177                     128                     108              105.656854       0.687880846991883       0.294303405291478        -0.3265594727175
178                     128                     108              102.828427      -0.246518405699109       -0.29578554771709    -0.00499126833099106
179                     128                     108                     100       0.691737358282516       0.286591436916698       0.334340754331053
180                     130                     110              105.656854       -1.17900983504372      -0.228396279328698      -0.838859088063209
181                     130                     110              102.828427      -0.513231251485663       0.231456839737503     0.00544970071250515
182                     130                     110                     100       -1.18548118615529      -0.223133904564545       0.830343736933014
183                     100                     112              105.656854        1.11886839151718       0.138291470846524      -0.806616417957925
184                     100                     112              102.828427       0.582950076699302      -0.140279503784212    -0.00448881684066314
185                     100                     112                     100        1.11302326058584       0.135912317371786       0.813700779359457
186                     102                     114              105.656854      -0.640264633097795      -0.170663103429632       -0.37111807477125
187                     102                     114              102.828427       0.185996436247787        0.17323223834565     0.00899555216636944
188                     102                     114                     100      -0.627017712185365      -0.167814551037649       0.357023857079108
189                     104                     112              105.656854        0.40350346443449       0.188390066712763      -0.375005175356628
190                     104                     112              102.828427      -0.323277208061045      -0.186285121431926     -0.0125311416925524
191                     104                     112                     100       0.385189791034204       0.177862198861955       0.395667999599512
192                     106                     114              105.656854      -0.362250913096342      -0.209517189848495      -0.517996070252733
193                     106                     114              102.828427       0.323610768723445       0.208453088298351      0.0257535002275604
194                     106                     114                     100      -0.322619844819517      -0.199903930266049       0.465394507987357
195                     108                     112              105.656854       0.292564142269959       0.267449732021421       -0.29982260785242
196                     108                     112              102.828427      -0.261994465588765      -0.224945051541589     -0.0249318186238797
197                     108                     112                     100       0.260698193255856        0.21136832011053       0.390301091730908
198                     110                     114              105.656854      -0.213913481575974      -0.216676736753408        -1.0855849695927
199                     110                     114              102.828427       0.219082288456842       0.225825701401033      0.0203191482142073
200                     110                     114                     100      -0.237835474345324      -0.220135414612571       0.455874693731282
201                     112                     112              105.656854      0.0692013282716686       0.229187764707575      -0.443653636058942