ITEM: TIMESTEP
0
ITEM: NUMBER OF ATOMS
422
ITEM: BOX BOUNDS ff ff ff
0.0000000000000000e+00 2.3200000000000000e+02
0.0000000000000000e+00 2.3200000000000000e+02
0.0000000000000000e+00 2.3200000000000000e+02
ITEM: ATOMS id xu yu zu fx fy fz
1        113.142426363465        115.980014985304        108.653348169626        0.47084902009181        2.08251742132231     -0.0518861919626259
2        118.839699140404        116.001440541967        108.669068300333       -1.64488774772166       0.813998532927332     -0.0723042708248505
3        117.373356047371        115.958806166219        108.627865053454        3.19894688902428        3.88308115596563      0.0995815447758658
4        114.531993881899        115.945873785885        108.617775842949       0.893985264989856       0.548168421428798      0.0502368612758206
5        116.736880347616         114.78553003001        108.692659179846       -2.13037227925825       -3.91714609344414     -0.0835597345544522
6         115.29323051835        114.766696136195        108.675257527483       0.846439605662419      -0.987620230232528     -0.0284962784118801
7         115.23055430008         117.18123464044        108.615066435052        2.25613328381489        1.32827737557423       0.343948959126008
8         116.71688122023        117.242745625391        108.675145178809       -2.12794877319917      -0.714049162506183      -0.248717363821759
9        114.524600358924        113.555289679342        108.663697438167       -1.50990057371451        2.31020975568727      -0.078859122890241
10        117.423627974932        113.514475896086          108.6199284922        3.06545186034075        4.56676044701989       0.204058286938518
11        114.553463578779        118.461945679899        108.697454028006      -0.313562198763141       -4.70022071179911     -0.0429537052653883
12        117.482465159009        118.451105862532        108.683659048353       -2.64519530016939       -1.65828373508674      0.0482697431543908
13        113.085226936132        113.520360263794        108.614769675897        2.85664351899623        4.55965442320585    -0.00179921856496357
14        113.155566972368        118.437672926529        108.689972164255      -0.651040280523092       -2.13901211041635     -0.0605091811637815
15        118.886166616542        113.603390683946        108.692052390374       -3.63852890905258       -2.19985948853818       -0.20903444634252
16        118.820493491718        118.384690190802        108.631241720222        1.15280691818349      -0.674441122282206     -0.0494851274247837
17        112.424226344242        117.191750449743        108.654284506103       0.870254972255696        1.23460271590567      0.0670067574309359
18        112.470208799712        114.812259556035        108.697833740972      -0.617040628979199       -3.00007859890508      -0.079565137735112
19        119.548011631906        114.779817547486        108.658244435213        2.93922821056031        2.34225489918853      0.0709222681096095
20        119.578752529173        117.236031797104        108.691418554145       0.189014273143686       -2.14952407006309     -0.0299014621758767
21        120.999607260433        114.868907323631        108.701326237809       -4.79067047500239       -5.03564064768571        0.18765272292659
22        120.992048364595         117.19754523192        108.696111002344      -0.707132075745486       -3.18062355519414      -0.139406419501554
23        111.068833473727        114.862666630058        108.705061800566       -3.84766312778298        -8.0421270559486        -0.5815176273202
24         111.01899871019        117.149028669318        108.657570697045      -0.143491082897766       -3.34175248773371     -0.0521632115465657
25        121.555448366258        115.960718983636        108.625575905518         1.0070970092917        6.70961877236033      -0.149856942597043
26        110.356139057776        115.950198461968        108.626302483304        1.29624127063631        3.29632321967716       0.043063575246232
27        121.637729674701        118.214455769803        108.685387628877       0.457965737972659       0.721269421376453    -0.00760582282063822
28        121.633900055818        113.818419338813        108.677151769118      -0.384701900086235       0.637126460710105      0.0146619417825843
29        110.312984294502        118.127795031071        108.610023543775       -0.37042997268593       0.513536818220454     -0.0249469278468781
30        110.322677785722        113.745281712191        108.615310795462        5.05718356803287        7.57324608878256       0.608301076469164
31        112.630196106252        112.645784084102        108.687183284009       -1.32557388851201       -2.54777318630963       0.210951833993392
32        112.631682461639        119.389062282249         108.69543296104      0.0701007081435691      -0.127304904402248   -0.000730706317550392
33        119.347667120241        112.589617321921        108.624207587289      -0.442578839871475       0.972208339668496      0.0650631451097895
34        119.328314044613        119.312056097859         108.61161783747       0.356286673475222       0.650639506881462     -0.0137681073881107
35        114.994705268683        112.601379259696        108.689272695816       0.241830480842103      -0.490708798556634      0.0131563757931659
36        114.942216309982        119.388513347441          108.6436452013        0.90017247390821        2.14550443659463      -0.124596487088703
37        117.030330876641        112.583363862359         108.66919295262      -0.836739974802244       -1.98094179444857       0.104810189418985
38        117.049355932626        119.442011965679        108.695079475095    0.000826289401463435    -0.00189045894430406    -2.1787985574568e-05
39                     100                     100              105.656854                       0                       0                       0
40                     100                     100              102.828427                       0                       0                       0
41                     100                     100                     100                       0                       0                       0
42                     102                     102              105.656854                       0                       0                       0
43                     102                     102              102.828427                       0                       0                       0
44                     102                     102                     100                       0                       0                       0
45                     104                     100              105.656854                       0                       0                       0
46                     104                     100              102.828427                       0                       0                       0
47                     104                     100                     100                       0                       0                       0
48                     106                     102              105.656854                       0                       0                       0
49                     106                     102              102.828427                       0                       0                       0
50                     106                     102                     100                       0                       0                       0
51                     108                     100              105.656854                       0                       0                       0
52                     108                     100              102.828427                       0                       0                       0
53                     108                     100                     100                       0                       0                       0
54                     110                     102              105.656854                       0                       0                       0
55                     110                     102              102.828427                       0                       0                       0
56                     110                     102                     100                       0                       0                       0
57                     112                     100              105.656854                       0                       0                       0
58                     112                     100              102.828427                       0                       0                       0
59                     112                     100                     100                       0                       0                       0
60                     114                     102              105.656854                       0                       0                       0
61                     114                     102              102.828427                       0                       0                       0
62                     114                     102                     100                       0                       0                       0
63                     116                     100              105.656854                       0                       0                       0
64                     116                     100              102.828427                       0                       0                       0
65                     116                     100                     100                       0                       0                       0
66                     118                     102              105.656854                       0                       0                       0
67                     118                     102              102.828427                       0                       0                       0
68                     118                     102                     100                       0                       0                       0
69                     120                     100              105.656854                       0                       0                       0
70                     120                     100              102.828427                       0                       0                       0
71                     120                     100                     100                       0                       0                       0
72                     122                     102              105.656854                       0                       0                       0
73                     122                     102              102.828427                       0                       0                       0
74                     122                     102                     100                       0                       0                       0
75                     124                     100              105.656854                       0                       0                       0
76                     124                     100              102.828427                       0                       0                       0
77                     124                     100                     100                       0                       0                       0
78                     126                     102              105.656854                       0                       0                       0
79                     126                     102              102.828427                       0                       0                       0
80                     126                     102                     100                       0                       0                       0
81                     128                     100              105.656854                       0                       0                       0
82                     128                     100              102.828427                       0                       0                       0
83                     128                     100                     100                       0                       0                       0
84                     130                     102              105.656854                       0                       0                       0
85                     130                     102              102.828427                       0                       0                       0
86                     130                     102                     100                       0                       0                       0
87                     100                     104              105.656854                       0                       0                       0
88                     100                     104              102.828427                       0                       0                       0
89                     100                     104                     100                       0                       0                       0
90                     102                     106              105.656854                       0                       0                       0
91                     102                     106              102.828427                       0                       0                       0
92                     102                     106                     100                       0                       0                       0
93                     104                     104              105.656854                       0                       0                       0
94                     104                     104              102.828427                       0                       0                       0
95                     104                     104                     100                       0                       0                       0
96                     106                     106              105.656854                       0                       0                       0
97                     106                     106              102.828427                       0                       0                       0
98                     106                     106                     100                       0                       0                       0
99                     108                     104              105.656854                       0                       0                       0
100                     108                     104              102.828427                       0                       0                       0
101                     108                     104                     100                       0                       0                       0
102                     110                     106              105.656854                       0                       0                       0
103                     110                     106              102.828427                       0                       0                       0
104                     110                     106                     100                       0                       0                       0
105                     112                     104              105.656854                       0                       0                       0
106                     112                     104              102.828427                       0                       0                       0
107                     112                     104                     100                       0                       0                       0
108                     114                     106              105.656854                       0                       0                       0
109                     114                     106              102.828427                       0                       0                       0
110                     114                     106                     100                       0                       0                       0
111                     116                     104              105.656854                       0                       0                       0
112                     116                     104              102.828427                       0                       0                       0
113                     116                     104                     100                       0                       0                       0
114                     118                     106              105.656854                       0                       0                       0
115                     118                     106              102.828427                       0                       0                       0
116                     118                     106                     100                       0                       0                       0
117                     120                     104              105.656854                       0                       0                       0
118                     120                     104              102.828427                       0                       0                       0
119                     120                     104                     100                       0                       0                       0
120                     122                     106              105.656854                       0                       0                       0
121                     122                     106              102.828427                       0                       0                       0
122                     122                     106                     100                       0                       0                       0
123                     124                     104              105.656854                       0                       0                       0
124                     124                     104              102.828427                       0                       0                       0
125                     124                     104                     100                       0                       0                       0
126                     126                     106              105.656854                       0                       0                       0
127                     126                     106              102.828427                       0                       0                       0
128                     126                     106                     100                       0                       0                       0
129                     128                     104              105.656854                       0                       0                       0
130                     128                     104              102.828427                       0                       0                       0
131                     128                     104                     100                       0                       0                       0
132                     130                     106              105.656854                       0                       0                       0
133                     130                     106              102.828427                       0                       0                       0
134                     130                     106                     100                       0                       0                       0
135                     100                     108              105.656854                       0                       0                       0
136                     100                     108              102.828427                       0                       0                       0
137                     100                     108                     100                       0                       0                       0
138                     102                     110              105.656854                       0                       0                       0
139                     102                     110              102.828427                       0                       0                       0
140                     102                     110                     100                       0                       0                       0
141                     104                     108              105.656854                       0                       0                       0
142                     104                     108              102.828427                       0                       0                       0
143                     104                     108                     100                       0                       0                       0
144                     106                     110              105.656854                       0                       0                       0
145                     106                     110              102.828427                       0                       0                       0
146                     106                     110                     100                       0                       0                       0
147                     108                     108              105.656854                       0                       0                       0
148                     108                     108              102.828427                       0                       0                       0
149                     108                     108                     100                       0                       0                       0
150                     110                     110              105.656854                       0                       0                       0
151                     110                     110              102.828427                       0                       0                       0
152                     110                     110                     100                       0                       0                       0
153                     112                     108              105.656854                       0                       0                       0
154                     112                     108              102.828427                       0                       0                       0
155                     112                     108                     100                       0                       0                       0
156                     114                     110              105.656854                       0                       0                       0
157                     114                     110              102.828427                       0                       0                       0
158                     114                     110                     100                       0                       0                       0
159                     116                     108              105.656854                       0                       0                       0
160                     116                     108              102.828427                       0                       0                       0
161                     116                     108                     100                       0                       0                       0
162                     118                     110              105.656854                       0                       0                       0
163                     118                     110              102.828427                       0                       0                       0
164                     118                     110                     100                       0                       0                       0
165                     120                     108              105.656854                       0                       0                       0
166                     120                     108              102.828427                       0                       0                       0
167                     120                     108                     100                       0                       0                       0
168                     122                     110              105.656854                       0                       0                       0
169                     122                     110              102.828427                       0                       0                       0
170                     122                     110                     100                       0                       0                       0
171                     124                     108              105.656854                       0                       0                       0
172                     124                     108              102.828427                       0                       0                       0
173                     124                     108                     100                       0                       0                       0
174                     126                     110              105.656854                       0                       0                       0
175                     126                     110              102.828427                       0                       0                       0
176                     126                     110                     100                       0                       0                       0
177                     128                     108              105.656854                       0                       0                       0
178                     128                     108              102.828427                       0                       0                       0
179                     128                     108                     100                       0                       0                       0
180                     130                     110              105.656854                       0                       0                       0
181                     130                     110              102.828427                       0                       0                       0
182                     130                     110                     100                       0                       0                       0
183                     100                     112              105.656854                       0                       0                       0
184                     100                     112              102.828427                       0                       0                       0
185                     100                     112                     100                       0                       0                       0
186                     102                     114              105.656854                       0                       0                       0
187                     102                     114              102.828427                       0                       0                       0
188                     102                     114                     100                       0                       0                       0
189                     104                     112              105.656854                       0                       0                       0
190                     104                     112              102.828427                       0                       0                       0
191                     104                     112                     100                       0                       0                       0
192                     106                     114              105.656854                       0                       0                       0
193                     106                     114              102.828427                       0                       0                       0
194                     106                     114                     100                       0                       0                       0
195                     108                     112              105.656854                       0                       0                       0
196                     108                     112              102.828427                       0                       0                       0
197                     108                     112                     100                       0                       0                       0
198                     110                     114              105.656854                       0                       0                       0
199                     110                     114              102.828427                       0                       0                       0
200                     110                     114                     100                       0                       0                       0
201                     112                     112              105.656854                       0                       0                       0