ITEM: TIMESTEP
0
ITEM: NUMBER OF ATOMS
422
ITEM: BOX BOUNDS ff ff ff
0.0000000000000000e+00 2.3200000000000000e+02
0.0000000000000000e+00 2.3200000000000000e+02
0.0000000000000000e+00 2.3200000000000000e+02
ITEM: ATOMS id xu yu zu fx fy fz
1        113.166419614759        116.004008236598        108.677341420921    0.000953808529795713    0.000936773579670863     -0.0166044303273576
2        118.860554161928        116.022295563492        108.689923321857   -0.000118411928485434    6.24600936651668e-06     -0.0133803765361481
3        117.428351814359        116.013801933207        108.682860820442    0.000490804771138276    -0.00102236725620726     -0.0213934040501404
4        114.615931146478        116.029811050465        108.701713107529   -0.000618844552444712   -3.25060279280974e-05     -0.0409665199563899
5        116.727293295451        114.775942977846        108.683072127682   -2.85305163472209e-05    0.000467629263315998     -0.0216522485229389
6        115.274463783881        114.747929401725        108.656490793014    0.000644067205009301   -5.71809794839829e-05     0.00358833583472144
7        115.278248557051        117.228928897411        108.662760692023    5.10524917011465e-05   -3.19624857853858e-05      0.0149796017855939
8        116.668509127137        117.194373532298        108.626773085716   -0.000200067732579361    0.000606164243591393        0.06158273372785
9         114.46898799345        113.499677313868        108.608085072692     0.00216775984459847     0.00227726555286315        0.11984074275307
10        117.460006566908        113.550854488063        108.656307084177    9.16418936609569e-05    -0.00034283586862159      0.0265745581284532
11        114.534853951313        118.443336052433         108.67884440054    0.000879704299536391   -5.92944477191397e-05     -0.0434631094527642
12        117.452359830486         118.42100053401        108.653553719831    -0.00101879390479822     0.00068651611402026      -0.079286719237356
13        113.147889617283        113.583022944945        108.677432357047    -0.00111649240113391    -0.00100246854813759      -0.144207137371495
14         113.09220054002        118.374306494181        108.626605731907   -0.000790266267338102    0.000758766667307838      0.0555511246279991
15        118.855748942816         113.57297301022        108.661634716648   -1.90203293859586e-05    0.000262221490621231     -0.0156322363207184
16         118.80007334178        118.364270040864        108.610821570284   -0.000712202358488167    -0.00151562041961803      0.0921680070628432
17        112.435733138425        117.203257243926        108.665791300286   -0.000543788934004876   -9.75837948467175e-05      0.0114594122773173
18        112.383775085506         114.72582584183        108.611400026766    -0.00306192641530044    0.000146476712723425      0.0110830379163186
19        119.562737871446        114.794543787026        108.672970674754   -0.000222362755672815    -0.00133848295416472     -0.0226102963274308
20        119.551992667397        117.209271935328        108.664658692369    -0.00376288055477062    -0.00455105525304539       0.143831125367336
21        120.955650945087        114.824951008285        108.657369922463     0.00040802306498791     0.00401703417529509      0.0919170451508235
22        121.002764950312        117.208261817637        108.706827588061     -0.0065922201063186      0.0148494169244884      -0.547349937172605
23         110.99495509534        114.788788251671        108.631183422179     0.00907742406694785     0.00448767672347082       0.253979967767814
24        111.013343080129        117.143373039258        108.651915066984     0.00200805451164724    -0.00245740957921698      -0.107679121115684
25        121.542759219981        115.948029837359        108.612886759241      0.0048623736873393     -0.0118178153060867       0.142415130701307
26        110.386175396905        115.980234801098        108.656338822434     -0.0044707682977108    0.000541112561039709     -0.0520176292721387
27        121.640664864776        118.217390959878        108.688322818952     0.00634720475780404   -6.39862752767383e-05       0.215312654455695
28        121.661466621429        113.845985904424        108.704718334729   -4.90126782393714e-05    -0.00160927248516818     -0.0325423306757255
29        110.310839540587        118.125650277156        108.607878789859   -0.000899058151760231     0.00118715620667528       0.040823343182031
30        110.394703744859        113.817307671329        108.687336754599    -0.00443713567379406    -0.00320280340254537      -0.102840877643619
31        112.551812748618        112.567400726468        108.608799926375   -0.000861411830069066    -0.00165600828224089      0.0319870132854546
32        112.564462599817        119.321842420427        108.628213099218    3.16753659612654e-05    4.44725481770022e-05     -0.0158165744444859
33        119.357567758324        112.599517960003        108.634108225372    3.34426858805888e-05   -0.000118096998327801     0.00478609086548113
34        119.411959930926        119.395701984173        108.695263723784     0.00107435743344128     0.00166673689524586     -0.0281436519774016
35        114.978004877122        112.584678868134        108.672572304255    0.000581985417400801    -0.00223794815648326     -0.0363476525744853
36        114.975580705052        119.421877742511         108.67700959637   -0.000133615511710874    8.23151100710821e-05      0.0118055302892927
37        117.020704901225        112.573737886943        108.659566977203   -6.49483877226301e-05    7.71753258318721e-06    -0.00643917009903552
38        116.996340354875        119.388996387929        108.642063897344    1.83792612249376e-05    0.000183000210376742      0.0146879678985168
39                     100                     100              105.656854                       0                       0                       0
40                     100                     100              102.828427                       0                       0                       0
41                     100                     100                     100                       0                       0                       0
42                     102                     102              105.656854                       0                       0                       0
43                     102                     102              102.828427                       0                       0                       0
44                     102                     102                     100                       0                       0                       0
45                     104                     100              105.656854                       0                       0                       0
46                     104                     100              102.828427                       0                       0                       0
47                     104                     100                     100                       0                       0                       0
48                     106                     102              105.656854                       0                       0                       0
49                     106                     102              102.828427                       0                       0                       0
50                     106                     102                     100                       0                       0                       0
51                     108                     100              105.656854                       0                       0                       0
52                     108                     100              102.828427                       0                       0                       0
53                     108                     100                     100                       0                       0                       0
54                     110                     102              105.656854                       0                       0                       0
55                     110                     102              102.828427                       0                       0                       0
56                     110                     102                     100                       0                       0                       0
57                     112                     100              105.656854                       0                       0                       0
58                     112                     100              102.828427                       0                       0                       0
59                     112                     100                     100                       0                       0                       0
60                     114                     102              105.656854                       0                       0                       0
61                     114                     102              102.828427                       0                       0                       0
62                     114                     102                     100                       0                       0                       0
63                     116                     100              105.656854                       0                       0                       0
64                     116                     100              102.828427                       0                       0                       0
65                     116                     100                     100                       0                       0                       0
66                     118                     102              105.656854                       0                       0                       0
67                     118                     102              102.828427                       0                       0                       0
68                     118                     102                     100                       0                       0                       0
69                     120                     100              105.656854                       0                       0                       0
70                     120                     100              102.828427                       0                       0                       0
71                     120                     100                     100                       0                       0                       0
72                     122                     102              105.656854                       0                       0                       0
73                     122                     102              102.828427                       0                       0                       0
74                     122                     102                     100                       0                       0                       0
75                     124                     100              105.656854                       0                       0                       0
76                     124                     100              102.828427                       0                       0                       0
77                     124                     100                     100                       0                       0                       0
78                     126                     102              105.656854                       0                       0                       0
79                     126                     102              102.828427                       0                       0                       0
80                     126                     102                     100                       0                       0                       0
81                     128                     100              105.656854                       0                       0                       0
82                     128                     100              102.828427                       0                       0                       0
83                     128                     100                     100                       0                       0                       0
84                     130                     102              105.656854                       0                       0                       0
85                     130                     102              102.828427                       0                       0                       0
86                     130                     102                     100                       0                       0                       0
87                     100                     104              105.656854                       0                       0                       0
88                     100                     104              102.828427                       0                       0                       0
89                     100                     104                     100                       0                       0                       0
90                     102                     106              105.656854                       0                       0                       0
91                     102                     106              102.828427                       0                       0                       0
92                     102                     106                     100                       0                       0                       0
93                     104                     104              105.656854                       0                       0                       0
94                     104                     104              102.828427                       0                       0                       0
95                     104                     104                     100                       0                       0                       0
96                     106                     106              105.656854                       0                       0                       0
97                     106                     106              102.828427                       0                       0                       0
98                     106                     106                     100                       0                       0                       0
99                     108                     104              105.656854                       0                       0                       0
100                     108                     104              102.828427                       0                       0                       0
101                     108                     104                     100                       0                       0                       0
102                     110                     106              105.656854                       0                       0                       0
103                     110                     106              102.828427                       0                       0                       0
104                     110                     106                     100                       0                       0                       0
105                     112                     104              105.656854                       0                       0                       0
106                     112                     104              102.828427                       0                       0                       0
107                     112                     104                     100                       0                       0                       0
108                     114                     106              105.656854                       0                       0                       0
109                     114                     106              102.828427                       0                       0                       0
110                     114                     106                     100                       0                       0                       0
111                     116                     104              105.656854                       0                       0                       0
112                     116                     104              102.828427                       0                       0                       0
113                     116                     104                     100                       0                       0                       0
114                     118                     106              105.656854                       0                       0                       0
115                     118                     106              102.828427                       0                       0                       0
116                     118                     106                     100                       0                       0                       0
117                     120                     104              105.656854                       0                       0                       0
118                     120                     104              102.828427                       0                       0                       0
119                     120                     104                     100                       0                       0                       0
120                     122                     106              105.656854                       0                       0                       0
121                     122                     106              102.828427                       0                       0                       0
122                     122                     106                     100                       0                       0                       0
123                     124                     104              105.656854                       0                       0                       0
124                     124                     104              102.828427                       0                       0                       0
125                     124                     104                     100                       0                       0                       0
126                     126                     106              105.656854                       0                       0                       0
127                     126                     106              102.828427                       0                       0                       0
128                     126                     106                     100                       0                       0                       0
129                     128                     104              105.656854                       0                       0                       0
130                     128                     104              102.828427                       0                       0                       0
131                     128                     104                     100                       0                       0                       0
132                     130                     106              105.656854                       0                       0                       0
133                     130                     106              102.828427                       0                       0                       0
134                     130                     106                     100                       0                       0                       0
135                     100                     108              105.656854                       0                       0                       0
136                     100                     108              102.828427                       0                       0                       0
137                     100                     108                     100                       0                       0                       0
138                     102                     110              105.656854                       0                       0                       0
139                     102                     110              102.828427                       0                       0                       0
140                     102                     110                     100                       0                       0                       0
141                     104                     108              105.656854                       0                       0                       0
142                     104                     108              102.828427                       0                       0                       0
143                     104                     108                     100                       0                       0                       0
144                     106                     110              105.656854                       0                       0                       0
145                     106                     110              102.828427                       0                       0                       0
146                     106                     110                     100                       0                       0                       0
147                     108                     108              105.656854                       0                       0                       0
148                     108                     108              102.828427                       0                       0                       0
149                     108                     108                     100                       0                       0                       0
150                     110                     110              105.656854                       0                       0                       0
151                     110                     110              102.828427                       0                       0                       0
152                     110                     110                     100                       0                       0                       0
153                     112                     108              105.656854                       0                       0                       0
154                     112                     108              102.828427                       0                       0                       0
155                     112                     108                     100                       0                       0                       0
156                     114                     110              105.656854                       0                       0                       0
157                     114                     110              102.828427                       0                       0                       0
158                     114                     110                     100                       0                       0                       0
159                     116                     108              105.656854                       0                       0                       0
160                     116                     108              102.828427                       0                       0                       0
161                     116                     108                     100                       0                       0                       0
162                     118                     110              105.656854                       0                       0                       0
163                     118                     110              102.828427                       0                       0                       0
164                     118                     110                     100                       0                       0                       0
165                     120                     108              105.656854                       0                       0                       0
166                     120                     108              102.828427                       0                       0                       0
167                     120                     108                     100                       0                       0                       0
168                     122                     110              105.656854                       0                       0                       0
169                     122                     110              102.828427                       0                       0                       0
170                     122                     110                     100                       0                       0                       0
171                     124                     108              105.656854                       0                       0                       0
172                     124                     108              102.828427                       0                       0                       0
173                     124                     108                     100                       0                       0                       0
174                     126                     110              105.656854                       0                       0                       0
175                     126                     110              102.828427                       0                       0                       0
176                     126                     110                     100                       0                       0                       0
177                     128                     108              105.656854                       0                       0                       0
178                     128                     108              102.828427                       0                       0                       0
179                     128                     108                     100                       0                       0                       0
180                     130                     110              105.656854                       0                       0                       0
181                     130                     110              102.828427                       0                       0                       0
182                     130                     110                     100                       0                       0                       0
183                     100                     112              105.656854                       0                       0                       0
184                     100                     112              102.828427                       0                       0                       0
185                     100                     112                     100                       0                       0                       0
186                     102                     114              105.656854                       0                       0                       0
187                     102                     114              102.828427                       0                       0                       0
188                     102                     114                     100                       0                       0                       0
189                     104                     112              105.656854                       0                       0                       0
190                     104                     112              102.828427                       0                       0                       0
191                     104                     112                     100                       0                       0                       0
192                     106                     114              105.656854                       0                       0                       0
193                     106                     114              102.828427                       0                       0                       0
194                     106                     114                     100                       0                       0                       0
195                     108                     112              105.656854                       0                       0                       0
196                     108                     112              102.828427                       0                       0                       0
197                     108                     112                     100                       0                       0                       0
198                     110                     114              105.656854                       0                       0                       0
199                     110                     114              102.828427                       0                       0                       0
200                     110                     114                     100                       0                       0                       0
201                     112                     112              105.656854                       0                       0                       0