ITEM: TIMESTEP
0
ITEM: NUMBER OF ATOMS
422
ITEM: BOX BOUNDS ff ff ff
0.0000000000000000e+00 2.3200000000000000e+02
0.0000000000000000e+00 2.3200000000000000e+02
0.0000000000000000e+00 2.3200000000000000e+02
ITEM: ATOMS id xu yu zu fx fy fz
1        113.145932193839        117.083520815677              108.656854     -0.0227753087309566     -0.0287483114927802      0.0671119347904982
2        118.827484840071        117.089226241634              108.656854      0.0201057510570316     -0.0294531546046258       0.070292573744413
3        117.402344993917        117.087795112765              108.656854     -0.0171721514154253     -0.0282257078319241      0.0863506756268461
4        114.571072038949        117.084951942936              108.656854      0.0224255414635758     -0.0288000105978192      0.0882983085121449
5        116.701075167769        115.849724850164              108.656854     0.00146345809785775     0.00686239040198589     0.00469845863679508
6        115.274826990867        115.848292608712              108.656854     0.00633735742712771     0.00702440899130879     0.00518410354832253
7        115.272341865028        118.323022205388              108.656854      0.0337232714938052      0.0100328952281913      0.0580075822437773
8        116.698590041422        118.324454446583              108.656854     -0.0252712316276567     0.00961652514093511      0.0546612999627343
9        114.517756920757        114.648446241175              108.656854      0.0266649590772655      0.0319863019027873       0.134945450958889
10        117.460553482731        114.651401403886              108.656854       -0.04580539368465      0.0316432963574898       0.133407845085084
11        114.512863550773        119.521345651893              108.656854     0.00905776367605818      0.0129000041931495      0.0326837583543447
12        117.455660110655        119.524300814179              108.656854     -0.0271022492734675      0.0127585227431682      0.0323097546583383
13        113.127311260236        114.662444587898              108.656854     -0.0237490658223443      0.0213012439716069      0.0912217424474342
14        113.122448808114        119.504554762274              108.656854    -0.00235294224595076      0.0113454557235424      0.0183981136894813
15        118.850968226168        114.668192293572              108.656854     0.00759546351661233      0.0220380451855797      0.0950857037518476
16        118.846105771496         119.51030247058              108.656854     -0.0130503456099098      0.0123506435229856      0.0211300776798329
17        112.426795838139         118.29431994364              108.656854     -0.0145248337881848      0.0111610128910242      0.0320743433010149
18         112.42922905874        115.871279815063              108.656854     0.00335230507104339     0.00245576414870093     0.00426492402330909
19        119.546621196692        115.878427112272              108.656854     0.00659073088684073     0.00230187194352512      0.0029831800743216
20        119.544187975028         118.30146724296              108.656854      0.0253248656804466      0.0110408999903414      0.0326389365171968
21        120.955135022624        115.924435085822              108.656854        0.15159449312586       0.139032975486443       0.031668969174799
22        120.952791362251        118.258288229576              108.656854        0.11563428290019     -0.0484994169995426      0.0349937057996263
23        111.020625673161        115.914458829493              108.656854     -0.0338759191388388       0.141588692212908      0.0537277531086609
24        111.018282013145        118.248311972274              108.656854     0.00054711194703394     -0.0413551177393396      0.0599066662564481
25        121.586726460739        117.091997078118              108.656854       -0.06212813968274     -0.0637881540346829      0.0663105343359706
26        110.386690574472        117.080749978664              108.656854    -0.00405974177093205     -0.0669551828781888      0.0520036146934117
27        121.609196045824        119.285922140926              108.656854      -0.164163145684753     -0.0078071217477636      0.0647022316448005
28          121.6136022867        114.898121569695              108.656854      -0.174281338896125     0.00896430383069155       0.104633916557204
29        110.359814750727        119.274625487296              108.656854       0.018880002011427     -0.0185124731336536      0.0358487177817442
30         110.36422099026         114.88682491673              108.656854      0.0241901267968027      0.0072401540200123      0.0744151817393439
31        112.599866822243        113.715454800093              108.656854     -0.0182719961962168      0.0199181058184569    -0.00663790945612515
32        112.593103500599        120.450483321209              108.656854     -0.0154845754442661      0.0395449110634117     0.00849102672490724
33        119.380313532952        113.722263734631              108.656854      0.0608807138088965      0.0199676706005948     -0.0125362907933115
34        119.373550207142        120.457292260389              108.656854      0.0553003286053056      0.0370731895012641     0.00246410276506745
35        114.962286572867         113.66896056388              108.656854     0.00816835758098394      0.0115698409413914    -0.00688793294676746
36        114.955425108682        120.501722146141              108.656854     0.00411167158897041      0.0262979199866441    -0.00491474033017307
37        117.017991924022        113.671024909739              108.656854      0.0186495609982126      0.0116117017804942    -0.00799449923604885
38        117.011130457531        120.503786490585              108.656854      0.0210559997673292      0.0258691225510922    -0.00551954896601166
39                     100                     100              105.656854       0.212131149342259       0.213744111764994      -0.975745752194199
40                     100                     100              102.828427        0.43202703804688       0.430604906232233   -0.000280698344506054
41                     100                     100                     100       0.212151566787831       0.213325787994743        0.97622278503814
42                     102                     102              105.656854      -0.344432764182885      -0.347129987050782      -0.277832079226126
43                     102                     102              102.828427     -0.0509064512959497     -0.0486235272464435    0.000491882334504975
44                     102                     102                     100      -0.344515492098271       -0.34629885902882       0.277024628949706
45                     104                     100              105.656854      0.0959264872590331       0.959759190183526      -0.809018267541195
46                     104                     100              102.828427     -0.0638938721808798        0.72691405760034   -0.000168382357551485
47                     104                     100                     100      0.0962620262009005       0.959321672947907       0.809279774054583
48                     106                     102              105.656854       -0.14949454996083      -0.514323552654974       -0.38129449774389
49                     106                     102              102.828427       0.142527899616808      0.0661805688881806    0.000184696978581937
50                     106                     102                     100      -0.150348403433823      -0.513586117248802       0.381041507748734
51                     108                     100              105.656854        0.11004741849108         1.0599433816998      -0.801917519296043
52                     108                     100              102.828427      -0.111917839287352       0.639960775133723    0.000255365209427895
53                     108                     100                     100       0.110846770960029        1.05999342423529       0.801447235707272
54                     110                     102              105.656854      -0.144230578444629      -0.581915023783637      -0.373931591105602
55                     110                     102              102.828427       0.148650653473297       0.134837033165391   -0.000818329696958178
56                     110                     102                     100      -0.145937779675719      -0.582630552184435       0.375345960375602
57                     112                     100              105.656854       0.132271667478305         1.1089188167619      -0.810492317644213
58                     112                     100              102.828427       -0.13588335396381        0.58912988780963    0.000913727767608181
59                     112                     100                     100       0.133091531350032        1.11002943714836       0.808922869273843
60                     114                     102              105.656854      -0.164522473480484      -0.620189863626319      -0.361931911756515
61                     114                     102              102.828427       0.169197879245428       0.175600801061284    -0.00197142039896811
62                     114                     102                     100      -0.165515260562356      -0.623028715331725       0.365220105992193
63                     116                     100              105.656854       0.166587880155394        1.14484205920974      -0.820922830439563
64                     116                     100              102.828427      -0.170771371813398         0.5516831538778     0.00126087022816097
65                     116                     100                     100        0.16658713994508        1.14657691502233       0.818781147868111
66                     118                     102              105.656854      -0.208773261200246      -0.652385971095224      -0.348498495733783
67                     118                     102              102.828427       0.213890198382706       0.208845514972361    -0.00196996340659195
68                     118                     102                     100      -0.207777840476519      -0.655220665925404       0.351784349888687
69                     120                     100              105.656854        0.22260771492815        1.18300034992444      -0.835060480504053
70                     120                     100              102.828427      -0.228204839551923       0.512623574519435    0.000913240870111654
71                     120                     100                     100       0.221788621600321        1.18410913576472       0.833491820740937
72                     122                     102              105.656854       -0.28762540262527      -0.688083160720507      -0.330402227717769
73                     122                     102              102.828427       0.292785084560065       0.244399921404564   -0.000817911752894398
74                     122                     102                     100      -0.285923049258484      -0.688796471406745       0.331815858253032
75                     124                     100              105.656854       0.325831689214102        1.23658571228351      -0.852115383514053
76                     124                     100              102.828427      -0.322597417226076       0.459577176517188    0.000256380431734627
77                     124                     100                     100        0.32503490123557        1.23663685637248       0.851643469526571
78                     126                     102              105.656854      -0.461268175079167      -0.727122667671477      -0.331864357483417
79                     126                     102              102.828427        0.39688692531816       0.281356522129055    0.000181288648377873
80                     126                     102                     100      -0.460418031912285      -0.726390802931865       0.331616762575436
81                     128                     100              105.656854       0.708104311888432        1.34040619108557      -0.754817691400586
82                     128                     100              102.828427       -0.28077705271972       0.396295218668353   -0.000165919191807375
83                     128                     100                     100       0.707769774432654        1.33997216259248        0.75507514636786
84                     130                     102              105.656854       -1.34065271610723      -0.708303898767752      -0.755274240715153
85                     130                     102              102.828427       -0.39585509809689        0.28071972345656    0.000487432798947505
86                     130                     102                     100       -1.34056947452505      -0.707479004293112       0.754474043701549
87                     100                     104              105.656854       0.958802815770959      0.0996385264612962      -0.808597241165295
88                     100                     104              102.828427       0.727846710099243     -0.0669555576145665   -0.000808596957759715
89                     100                     104                     100       0.958464841860664      0.0985700862533835       0.809943022040551
90                     102                     106              105.656854      -0.513127517883308      -0.156288985271662       -0.38234267690318
91                     102                     106              102.828427      0.0648956071608513       0.147715746295213     0.00162829735745576
92                     102                     106                     100      -0.512363986277658      -0.153905511139214       0.379718345806484
93                     104                     104              105.656854       0.247089942118728        0.25195053740792      -0.388865106664425
94                     104                     104              102.828427      -0.179991204845137      -0.183847640685139   -0.000899648078207941
95                     104                     104                     100       0.247408863308591       0.250186398871573        0.39028862377302
96                     106                     106              105.656854      -0.233062361916552      -0.242716318184618      -0.503627765964246
97                     106                     106              102.828427       0.225464186738129       0.232327299313211     0.00167264744890563
98                     106                     106                     100      -0.234360329838426      -0.238736582529225       0.501022622523201
99                     108                     104              105.656854       0.174168890498372       0.337501663261733      -0.375551180614964
100                     108                     104              102.828427      -0.177878115493387      -0.268173956616671    1.88931158853229e-05
101                     108                     104                     100       0.176502392217091       0.336475961339673       0.375422610640232
102                     110                     106              105.656854      -0.185008211723177      -0.291556604275544      -0.489732013351548
103                     110                     106              102.828427       0.193748839697477        0.28494677349701    -0.00127422092135145
104                     110                     106                     100      -0.191590040080148      -0.291560928044136       0.491925322945833
105                     112                     104              105.656854         0.1689004473652       0.380375756583179      -0.390259137401196
106                     112                     104              102.828427      -0.175225697264295      -0.314913805852215     0.00239332929908773
107                     112                     104                     100       0.172250012808383       0.383564971722753       0.386284662181028
108                     114                     106              105.656854      -0.190848091959877       -0.31206163316811      -0.469946019608178
109                     114                     106              102.828427       0.198731503155881       0.313116361593161    -0.00630573375708713
110                     114                     106                     100      -0.195576923060952      -0.322615851045754       0.480429271869754
111                     116                     104              105.656854       0.198194855912879       0.408125394074058      -0.404964915549633
112                     116                     104              102.828427       -0.20340092399763      -0.345443286037053      0.0038821017650184
113                     116                     104                     100       0.198188427281312       0.414355825982096         0.3985993554317
114                     118                     106              105.656854      -0.238377197613551      -0.334289363427997      -0.454048189407198
115                     118                     106              102.828427       0.242093842954403       0.336023983836663    -0.00629417522526338
116                     118                     106                     100      -0.233626470373488       -0.34481101795367       0.464511561130496
117                     120                     104              105.656854       0.258514699456188       0.437041938949776      -0.420982115512695
118                     120                     104              102.828427      -0.263767929498419      -0.373419532174029     0.00238832942386613
119                     120                     104                     100       0.255168752293207       0.440217193044046       0.417015795724226
120                     122                     106              105.656854      -0.315234196830506      -0.361540659032379      -0.437958770359767
121                     122                     106              102.828427       0.318194267982971       0.357203200151303     -0.0012689277577249
122                     122                     106                     100      -0.308684720432777      -0.361531134516496       0.440143307424692
123                     124                     104              105.656854       0.367070168247796       0.462802503244547      -0.438873878189051
124                     124                     104              102.828427      -0.361791205031852      -0.397380962573404    2.19002510426376e-05
125                     124                     104                     100        0.36474877661002       0.461782412343397       0.438740678728105
126                     126                     106              105.656854      -0.466171308881853      -0.367007880790483      -0.440543464389547
127                     126                     106              102.828427       0.400875238885064        0.36056083292336     0.00165869250478998
128                     126                     106                     100       -0.46488379896309      -0.363057258340244       0.437960801016623
129                     128                     104              105.656854        0.72808032463637       0.461444161798701      -0.331009949349118
130                     128                     104              102.828427       -0.28260634008371      -0.396531370857983   -0.000891608817660305
131                     128                     104                     100       0.727762380887831       0.459693407519023       0.332420768709157
132                     130                     106              105.656854       -1.23726375311295      -0.327544339020288       -0.85317966307163
133                     130                     106              102.828427      -0.458441444994168       0.323451543888202     0.00161498181992349
134                     130                     106                     100       -1.23801993280059      -0.325179948409712       0.850576390675883
135                     100                     108              105.656854        1.06215466582717       0.116362794543512      -0.800311510746616
136                     100                     108              102.828427       0.638709127782815      -0.116771850018668    -0.00202025911379441
137                     100                     108                     100        1.06042074980665       0.114190012413053       0.803605451006414
138                     102                     110              105.656854      -0.587996541405846      -0.155421620638573       -0.37815291884998
139                     102                     110              102.828427       0.137820876138382       0.156319621214282     0.00437487753313715
140                     102                     110                     100      -0.583498264687395      -0.150586862325348       0.371142759752737
141                     104                     108              105.656854       0.336495213377726       0.187762521596579      -0.372483734288288
142                     104                     108              102.828427      -0.266426636409238      -0.186973977544544    -0.00354137193480717
143                     104                     108                     100       0.334657979256861        0.18191985267389       0.378133935922775
144                     106                     110              105.656854      -0.292938866527785      -0.214906672150733       -0.50080361654348
145                     106                     110              102.828427       0.282358133329636        0.20948271926254     0.00810596010888751
146                     106                     110                     100       -0.28861408568502      -0.199247227701358       0.486506873372416
147                     108                     108              105.656854       0.222859397767771       0.244498042816243       -0.36253286109137
148                     108                     108              102.828427      -0.229954707971682       -0.24255397140621    -0.00279024083183468
149                     108                     108                     100       0.228664775802807       0.235381600825328       0.367360846822852
150                     110                     110              105.656854       -0.19463248958506      -0.246119942546163      -0.480606138247264
151                     110                     110              102.828427       0.219831664225042       0.241517131861466     0.00176195764717945
152                     110                     110                     100      -0.223027983600304      -0.232232202256929        0.47569091880282
153                     112                     108              105.656854       0.186023674229248       0.258352829213217       -0.39019036604716
154                     112                     108              102.828427      -0.201872195550272      -0.269555394271034      0.0065063378176222
155                     112                     108                     100       0.202486782585384       0.267248887790292       0.378759599467548
156                     114                     110              105.656854      -0.190181664371184      -0.203699494254868      -0.418067023776572
157                     114                     110              102.828427       0.212407230101605       0.246701735148338     -0.0207469558546387
158                     114                     110                     100      -0.214325009750419      -0.249087148243251       0.467960218180222
159                     116                     108              105.656854       0.220233708894347       0.261113869307572      -0.415222983270392
160                     116                     108              102.828427      -0.226102703873899      -0.284248846638696      0.0137281426846352
161                     116                     108                     100       0.220184118767384       0.286416995506761       0.390901444992486
162                     118                     110              105.656854      -0.272700939241341      -0.214899684434875      -0.400900680153338
163                     118                     110              102.828427       0.262993192460364       0.258050314630539      -0.020674205034798
164                     118                     110                     100      -0.248364460044103      -0.260057442744992       0.450588726699259
165                     120                     108              105.656854       0.288998038686223       0.292048775378636      -0.424936835367293
166                     120                     108              102.828427      -0.286325955016243       -0.30423120245687     0.00646908818445905
167                     120                     108                     100       0.272566703748493       0.300838810543549       0.413577228173327
168                     122                     110              105.656854      -0.341829994681115      -0.279700266412167      -0.424232838423102
169                     122                     110              102.828427       0.329772499631494       0.276090312002874     0.00179339449130453
170                     122                     110                     100      -0.313729628156618      -0.265724165220365       0.419260824800185
171                     124                     108              105.656854       0.374002221426418       0.314073079610733      -0.434896275516053
172                     124                     108              102.828427       -0.36700177646514      -0.314441377495845    -0.00277402925509516
173                     124                     108                     100        0.36825873125185       0.305009243612477       0.439688319052971
174                     126                     110              105.656854      -0.442512943788769      -0.270675824208662      -0.429370597227871
175                     126                     110              102.828427       0.381281178180072       0.267181120939338     0.00804396630370689
176                     126                     110                     100      -0.446819308599306      -0.255153813378609       0.415208161251408
177                     128                     108              105.656854       0.690026012462264        0.29184461081206      -0.327776186976995
178                     128                     108              102.828427      -0.247347209728875      -0.294482470305361    -0.00351223117386196
179                     128                     108                     100       0.691847956232622       0.286051831327306       0.333378749914926
180                     130                     110              105.656854       -1.18149111681834      -0.227753178321298      -0.838130036725742
181                     130                     110              102.828427      -0.511927073561667       0.231059499023199     0.00433890749496342
182                     130                     110                     100       -1.18594810363923      -0.222959070766682       0.831177758694587
183                     100                     112              105.656854         1.1173471228486       0.138682116585224      -0.806823798358311
184                     100                     112              102.828427       0.583942059741218       -0.14051361217143    -0.00395504757172137
185                     100                     112                     100        1.11254770382742        0.13604742572892       0.813200067537221
186                     102                     114              105.656854      -0.637803169059699      -0.172285907559481      -0.370840895191304
187                     102                     114              102.828427       0.184583357277062       0.174125219730087     0.00808900208813754
188                     102                     114                     100       -0.62648477928537       -0.16824693664876       0.357758232180259
189                     104                     112              105.656854       0.397293421234034       0.188625154635102      -0.377396393540939
190                     104                     112              102.828427      -0.321058703740676      -0.186361099595196    -0.00993108191687913
191                     104                     112                     100       0.384719469439082       0.177918372803231       0.394226875973881
192                     106                     114              105.656854      -0.353317451234228      -0.217058558484137      -0.513065989051941
193                     106                     114              102.828427       0.321545275784331       0.210310349951541      0.0211341911149782
194                     106                     114                     100      -0.322626189565302      -0.200426587559677        0.46723655607715
195                     108                     112              105.656854       0.268158971086076       0.254824085086931      -0.338376898115401
196                     108                     112              102.828427      -0.263055937098321       -0.22435198412528      -0.016430886839794
197                     108                     112                     100       0.261979391002212        0.21122213442818       0.388134937266451
198                     110                     114              105.656854      -0.153764172105906       -0.26021327291433      -0.643126238542147
199                     110                     114              102.828427       0.226807272417233       0.228497343451975      0.0154353277418859
200                     110                     114                     100      -0.240313625510431      -0.220190244513569       0.456630877580916
201                     112                     112              105.656854        0.13292971494482       0.222212467831618      -0.429562785094835