ITEM: TIMESTEP
0
ITEM: NUMBER OF ATOMS
422
ITEM: BOX BOUNDS pp pp pp
0.0000000000000000e+00 3.2000000000000000e+01
0.0000000000000000e+00 3.2000000000000000e+01
0.0000000000000000e+00 3.2000000000000000e+01
ITEM: ATOMS id xu yu zu fx fy fz
1        13.1809618804984        16.0185505023371        8.69187968665979       -5.97292718272473       -5.65927245597084       -1.14567249216161
2        18.7973815477773        15.9591229493405        8.62674670770615        4.34126185767244        3.45010687361799       0.882579695896612
3         17.444239811959         16.029689930807        8.69874481804209       -5.41311877454209       -5.06491592008272      -0.878594154531308
4        14.5345795131452         15.948459417132        8.62035747419618        3.45525679809986        2.14995271952047       0.344599742172381
5        16.6854296299021        14.7340793122966        8.64120446213289         1.6696861264081        3.13360003144557       0.591297706159082
6        15.2255092784175         14.698974896262        8.60753228755006        3.30443297380939        3.63826471747902       0.462700644519214
7         15.251685075517        17.2023654158771         8.6361932104894        2.15648770651866       0.388818133118081       0.215897871381244
8        16.7393127962985        17.2651772014595        8.69757275487699        -2.7383753149499        -1.6178889309474      -0.302782597093017
9        14.5252018651469        13.5558911855646        8.66429494438952       -1.81698815757293       -1.55440653265946      -0.100726096606079
10        17.4827653719312        13.5736132930859        8.67906188919983       -4.89389948442493       -4.58181895450693      -0.854336550463026
11         14.486724255777        18.3952063568971        8.63071070500409        1.68241565040984        1.89000001393635       0.233663007998995
12        17.4921996949771        18.4608403985008        8.69338958432194        -3.6034845861857       -2.52282011719123      -0.398006688807601
13        13.1287537610494        13.5638870887112        8.65829250081362      -0.489772279629003       -1.19790936089394      -0.198066031601846
14        13.1094061247488        18.3915120789094        8.64380731663513     0.00953942118232082        1.49993041192673       0.158240729563403
15        18.8032187584632        13.5204428258672        8.60910053229512        6.63178767043414         6.2370979600913        1.34992266137962
16        18.8062345425005        18.3704312415847        8.61697877100423        3.04475955224695        1.97131415312275       0.127774591846512
17        12.4262651311876        17.1937892366886        8.65631929304862       -0.73173230239891       0.106280372181648      -0.104016108906104
18        12.4029476020753        14.7449983583991        8.63056854333567         2.8494062161044        3.40444938716199       0.663374985075772
19        19.5944739013198        14.8262798168996        8.70470270462755       -5.32208748383746       -6.06070947544042      -0.922935368796366
20        19.4941917042395        17.1514709721708        8.60685372921128        3.40945367823917        3.30454605271234       0.737804766440615
21        21.0051205344526        14.8744205976509        8.70683551182855       -6.14998758550196       -7.91273539650267        -0.9870136477501
22        20.9722798839663        17.1777767512914        8.67633852171557        -5.4510981552111       -5.27692940942608       -1.21950647007665
23          11.00288405233        14.7967172086614        8.63910837916886       0.951570062323602        1.07301912704784       0.271845950606014
24        10.9905882773896        17.1206182365179        8.62915626424423        3.99630781909576        3.53773457529786       0.691585446113027
25        21.5651077237704        15.9703783411486        8.63523126303087        6.26635542432499        5.35520162710726       0.598903918861782
26        10.4067585667225        16.0008179709153         8.6769179922509       -3.21011370653911       -4.21456045988695      -0.510723619008681
27        21.6066071296059        18.1833332247082        8.65426108378182        1.24420281131344        1.70761846169038      0.0801585644418084
28        21.5692162290695         13.753735512064        8.61246394236932        1.37476562053291        3.77610250567502       0.455453329370233
29        10.3369575744031         18.151768310972        8.63399282367565      -0.356794588833676      -0.370262686802556      -0.113519883967533
30        10.3444703696017         13.767074296071        8.63709937934126      -0.375712132834037       0.489092196307308      0.0202455891090409
31        12.6020812265422        12.6176692043929        8.65906440429955       0.124989821372353     -0.0965864407768883      0.0499570599320843
32         12.633840847966         19.391220668576        8.69758734736676      -0.282315851770442      -0.973193848792026      -0.188996963793029
33        19.3702410733848        12.6121912750642        8.64677754043291      -0.486818831156319      -0.726989012167535       -0.17629124157731
34        19.3403077072179        19.3240497604644        8.62360750007546       0.106873384118007      -0.383155677323408      -0.123979534676588
35        15.0109582471851        12.6176322381977        8.70552167431818      -0.553422521067394      -0.660173284184872      0.0204060883182883
36        14.9710636997141         19.417360737173        8.67248859103214        -1.1532685564461       -1.49128496467556     -0.0988438450214492
37        16.9873951361073        12.5404281218251        8.62625321208577        1.53143850725887        1.87763154070891       0.228836556507192
38        16.9682782851269        19.3609343181804        8.61399782759588       0.850926394160586         1.3748520680827       0.138762389145381
39                       0                       0                5.656854                       0                       0                       0
40                       0                       0                2.828427                       0                       0                       0
41                       0                       0                       0                       0                       0                       0
42                       2                       2                5.656854                       0                       0                       0
43                       2                       2                2.828427                       0                       0                       0
44                       2                       2                       0                       0                       0                       0
45                       4                       0                5.656854                       0                       0                       0
46                       4                       0                2.828427                       0                       0                       0
47                       4                       0                       0                       0                       0                       0
48                       6                       2                5.656854                       0                       0                       0
49                       6                       2                2.828427                       0                       0                       0
50                       6                       2                       0                       0                       0                       0
51                       8                       0                5.656854                       0                       0                       0
52                       8                       0                2.828427                       0                       0                       0
53                       8                       0                       0                       0                       0                       0
54                      10                       2                5.656854                       0                       0                       0
55                      10                       2                2.828427                       0                       0                       0
56                      10                       2                       0                       0                       0                       0
57                      12                       0                5.656854                       0                       0                       0
58                      12                       0                2.828427                       0                       0                       0
59                      12                       0                       0                       0                       0                       0
60                      14                       2                5.656854                       0                       0                       0
61                      14                       2                2.828427                       0                       0                       0
62                      14                       2                       0                       0                       0                       0
63                      16                       0                5.656854                       0                       0                       0
64                      16                       0                2.828427                       0                       0                       0
65                      16                       0                       0                       0                       0                       0
66                      18                       2                5.656854                       0                       0                       0
67                      18                       2                2.828427                       0                       0                       0
68                      18                       2                       0                       0                       0                       0
69                      20                       0                5.656854                       0                       0                       0
70                      20                       0                2.828427                       0                       0                       0
71                      20                       0                       0                       0                       0                       0
72                      22                       2                5.656854                       0                       0                       0
73                      22                       2                2.828427                       0                       0                       0
74                      22                       2                       0                       0                       0                       0
75                      24                       0                5.656854                       0                       0                       0
76                      24                       0                2.828427                       0                       0                       0
77                      24                       0                       0                       0                       0                       0
78                      26                       2                5.656854                       0                       0                       0
79                      26                       2                2.828427                       0                       0                       0
80                      26                       2                       0                       0                       0                       0
81                      28                       0                5.656854                       0                       0                       0
82                      28                       0                2.828427                       0                       0                       0
83                      28                       0                       0                       0                       0                       0
84                      30                       2                5.656854                       0                       0                       0
85                      30                       2                2.828427                       0                       0                       0
86                      30                       2                       0                       0                       0                       0
87                       0                       4                5.656854                       0                       0                       0
88                       0                       4                2.828427                       0                       0                       0
89                       0                       4                       0                       0                       0                       0
90                       2                       6                5.656854                       0                       0                       0
91                       2                       6                2.828427                       0                       0                       0
92                       2                       6                       0                       0                       0                       0
93                       4                       4                5.656854                       0                       0                       0
94                       4                       4                2.828427                       0                       0                       0
95                       4                       4                       0                       0                       0                       0
96                       6                       6                5.656854                       0                       0                       0
97                       6                       6                2.828427                       0                       0                       0
98                       6                       6                       0                       0                       0                       0
99                       8                       4                5.656854                       0                       0                       0
100                       8                       4                2.828427                       0                       0                       0
101                       8                       4                       0                       0                       0                       0
102                      10                       6                5.656854                       0                       0                       0
103                      10                       6                2.828427                       0                       0                       0
104                      10                       6                       0                       0                       0                       0
105                      12                       4                5.656854                       0                       0                       0
106                      12                       4                2.828427                       0                       0                       0
107                      12                       4                       0                       0                       0                       0
108                      14                       6                5.656854                       0                       0                       0
109                      14                       6                2.828427                       0                       0                       0
110                      14                       6                       0                       0                       0                       0
111                      16                       4                5.656854                       0                       0                       0
112                      16                       4                2.828427                       0                       0                       0
113                      16                       4                       0                       0                       0                       0
114                      18                       6                5.656854                       0                       0                       0
115                      18                       6                2.828427                       0                       0                       0
116                      18                       6                       0                       0                       0                       0
117                      20                       4                5.656854                       0                       0                       0
118                      20                       4                2.828427                       0                       0                       0
119                      20                       4                       0                       0                       0                       0
120                      22                       6                5.656854                       0                       0                       0
121                      22                       6                2.828427                       0                       0                       0
122                      22                       6                       0                       0                       0                       0
123                      24                       4                5.656854                       0                       0                       0
124                      24                       4                2.828427                       0                       0                       0
125                      24                       4                       0                       0                       0                       0
126                      26                       6                5.656854                       0                       0                       0
127                      26                       6                2.828427                       0                       0                       0
128                      26                       6                       0                       0                       0                       0
129                      28                       4                5.656854                       0                       0                       0
130                      28                       4                2.828427                       0                       0                       0
131                      28                       4                       0                       0                       0                       0
132                      30                       6                5.656854                       0                       0                       0
133                      30                       6                2.828427                       0                       0                       0
134                      30                       6                       0                       0                       0                       0
135                       0                       8                5.656854                       0                       0                       0
136                       0                       8                2.828427                       0                       0                       0
137                       0                       8                       0                       0                       0                       0
138                       2                      10                5.656854                       0                       0                       0
139                       2                      10                2.828427                       0                       0                       0
140                       2                      10                       0                       0                       0                       0
141                       4                       8                5.656854                       0                       0                       0
142                       4                       8                2.828427                       0                       0                       0
143                       4                       8                       0                       0                       0                       0
144                       6                      10                5.656854                       0                       0                       0
145                       6                      10                2.828427                       0                       0                       0
146                       6                      10                       0                       0                       0                       0
147                       8                       8                5.656854                       0                       0                       0
148                       8                       8                2.828427                       0                       0                       0
149                       8                       8                       0                       0                       0                       0
150                      10                      10                5.656854                       0                       0                       0
151                      10                      10                2.828427                       0                       0                       0
152                      10                      10                       0                       0                       0                       0
153                      12                       8                5.656854                       0                       0                       0
154                      12                       8                2.828427                       0                       0                       0
155                      12                       8                       0                       0                       0                       0
156                      14                      10                5.656854                       0                       0                       0
157                      14                      10                2.828427                       0                       0                       0
158                      14                      10                       0                       0                       0                       0
159                      16                       8                5.656854                       0                       0                       0
160                      16                       8                2.828427                       0                       0                       0
161                      16                       8                       0                       0                       0                       0
162                      18                      10                5.656854                       0                       0                       0
163                      18                      10                2.828427                       0                       0                       0
164                      18                      10                       0                       0                       0                       0
165                      20                       8                5.656854                       0                       0                       0
166                      20                       8                2.828427                       0                       0                       0
167                      20                       8                       0                       0                       0                       0
168                      22                      10                5.656854                       0                       0                       0
169                      22                      10                2.828427                       0                       0                       0
170                      22                      10                       0                       0                       0                       0
171                      24                       8                5.656854                       0                       0                       0
172                      24                       8                2.828427                       0                       0                       0
173                      24                       8                       0                       0                       0                       0
174                      26                      10                5.656854                       0                       0                       0
175                      26                      10                2.828427                       0                       0                       0
176                      26                      10                       0                       0                       0                       0
177                      28                       8                5.656854                       0                       0                       0
178                      28                       8                2.828427                       0                       0                       0
179                      28                       8                       0                       0                       0                       0
180                      30                      10                5.656854                       0                       0                       0
181                      30                      10                2.828427                       0                       0                       0
182                      30                      10                       0                       0                       0                       0
183                       0                      12                5.656854                       0                       0                       0
184                       0                      12                2.828427                       0                       0                       0
185                       0                      12                       0                       0                       0                       0
186                       2                      14                5.656854                       0                       0                       0
187                       2                      14                2.828427                       0                       0                       0
188                       2                      14                       0                       0                       0                       0
189                       4                      12                5.656854                       0                       0                       0
190                       4                      12                2.828427                       0                       0                       0
191                       4                      12                       0                       0                       0                       0
192                       6                      14                5.656854                       0                       0                       0
193                       6                      14                2.828427                       0                       0                       0
194                       6                      14                       0                       0                       0                       0
195                       8                      12                5.656854                       0                       0                       0
196                       8                      12                2.828427                       0                       0                       0
197                       8                      12                       0                       0                       0                       0
198                      10                      14                5.656854                       0                       0                       0
199                      10                      14                2.828427                       0                       0                       0
200                      10                      14                       0                       0                       0                       0
201                      12                      12                5.656854                       0                       0                       0