ITEM: TIMESTEP
0
ITEM: NUMBER OF ATOMS
422
ITEM: BOX BOUNDS pp pp pp
0.0000000000000000e+00 3.2000000000000000e+01
0.0000000000000000e+00 3.2000000000000000e+01
0.0000000000000000e+00 3.2000000000000000e+01
ITEM: ATOMS id xu yu zu fx fy fz
1        14.8459321938386        15.9835208156773                 8.65685     0.00594079607522371    0.000553202970734593     0.00800855063606141
2        20.5274848400711        15.9892262416344                 8.65685    -0.00329540147565322    0.000138491579802668    -0.00182287228777815
3         19.102344993917         15.987795112765                 8.65685     0.00533023775225283    0.000295671544703696      0.0032610768798364
4         16.271072038949        15.9849519429358                 8.65685    -0.00167292081131837    0.000119457120316566    -0.00374624987973753
5        18.4010751677692        14.7497248501637                 8.65685      0.0196810277465826      0.0368118918718561       0.123780414651214
6        16.9748269908674        14.7482926087119                 8.65685     -0.0286321477097613      0.0210200410798598      0.0647057359543554
7        16.9723418650276        17.2230222053877                 8.65685     -0.0278274996314491       -0.02115947190504      0.0623490991198527
8        18.3985900414216        17.2244544465825                 8.65685      0.0191041981973019     -0.0371884711367522       0.120532942625192
9        16.2177569207574        13.5484462411751                 8.65685     -0.0100419142890581    -0.00520782165271978      0.0189197884903195
10        19.1605534827313        13.5514014038861                 8.65685      0.0333918417621833     -0.0131560499809614      0.0680383838468969
11        16.2128635507729         18.421345651893                 8.65685    -0.00998288803886511     0.00492351435472288      0.0192676801561124
12        19.1556601106552        18.4243008141789                 8.65685      0.0339533665522256      0.0126993850724411      0.0697163345550467
13        14.8273112602357        13.5624445878976                 8.65685      0.0368729945657297     -0.0195050038187246       0.110990581960484
14        14.8224488081137        18.4045547622743                 8.65685      0.0374925117419015       0.018442561139783       0.113871815743425
15         20.550968226168        13.5681922935721                 8.65685     -0.0244823274760344     -0.0081919364442593      0.0392724872790131
16        20.5461057714963        18.4103024705805                 8.65685     -0.0245703707901304     0.00781485278201802      0.0394533551593281
17         14.126795838139        17.1943199436399                 8.65685       0.006447707711884     -0.0410004504476437       0.128962443422459
18        14.1292290587396        14.7712798150634                 8.65685     0.00679676349691184      0.0406097358494998       0.133946392601597
19        21.2466211966922        14.7784271122721                 8.65685     -0.0278595938982163      0.0287828043858317      0.0894924267853941
20        21.2441879750283        17.2014672429596                 8.65685     -0.0273338202966165     -0.0288721839121438      0.0872078533672576
21        22.6551350226241        14.8244350858224                 8.65685      0.0252362002001122      0.0317385488304983      0.0938111877309807
22        22.6527913622507        17.1582882295758                 8.65685       0.024742488541196     -0.0318782084901097      0.0920737357394377
23        12.7206256731611        14.8144588294926                 8.65685     -0.0225388417902435      0.0148781635635121      0.0378509824718942
24        12.7182820131454        17.1483119722736                 8.65685     -0.0216158461013676     -0.0148877241597407      0.0357736848885142
25        23.2867264607395        15.9919970781177                 8.65685     0.00142153478936946     5.4533888697611e-05    -0.00821790199726002
26        12.0866905744716        15.9807499786644                 8.65685   -0.000156036779175204    3.59575673992165e-05     -0.0100135176421123
27         23.309196045824        18.1859221409264                 8.65685      0.0132414076147073     0.00191862032075808       0.016112082656865
28        23.3136022867001        13.7981215696947                 8.65685      0.0131227243785963    -0.00205947091076819      0.0157838818687348
29        12.0598147507275        18.1746254872963                 8.65685    -0.00125334877795989    0.000729221096642954   -0.000963270091118171
30        12.0642209902605        13.7868249167297                 8.65685    -0.00133265750133277   -0.000881632854235953    -0.00106055231758829
31        14.2998668222426        12.6154548000933                 8.65685    0.000573455984714977    -0.00299905554701692    -0.00458201733564597
32        14.2931035005993        19.3504833212092                 8.65685    0.000607801887157491     0.00315279662797762     -0.0041297653656722
33        21.0803135329519        12.6222637346313                 8.65685   -0.000979846350634562    -0.00167400570466345    -0.00719010969380214
34        21.0735502071424         19.357292260389                 8.65685    -0.00103057272940037     0.00170566335622116       -0.00707305277822
35        16.6622865728669        12.5689605638796                 8.65685   -0.000544423729647853   -0.000623131875600645    -0.00916568047494636
36         16.655425108682        19.4017221461408                 8.65685    -0.00059351818200909    0.000643659209061481    -0.00909036268167559
37        18.7179919240215        12.5710249097393                 8.65685    0.000874790955317965    -0.00202465308597247    -0.00665155943165438
38         18.711130457531        19.4037864905846                 8.65685    0.000932240774855986      0.0021224618425407     -0.0063991149074391
39                       0                       0                5.656854                       0                       0                       0
40                       0                       0                2.828427                       0                       0                       0
41                       0                       0                       0                       0                       0                       0
42                       2                       2                5.656854                       0                       0                       0
43                       2                       2                2.828427                       0                       0                       0
44                       2                       2                       0                       0                       0                       0
45                       4                       0                5.656854                       0                       0                       0
46                       4                       0                2.828427                       0                       0                       0
47                       4                       0                       0                       0                       0                       0
48                       6                       2                5.656854    5.48580822882417e-09    9.19412826199192e-09    2.36460240574396e-09
49                       6                       2                2.828427    1.69776827165999e-10    2.90455720343294e-10    1.47777209297623e-10
50                       6                       2                       0                       0                       0                       0
51                       8                       0                5.656854    2.38520231432382e-10    1.45540528047407e-11    1.41057895121071e-10
52                       8                       0                2.828427                       0                       0                       0
53                       8                       0                       0                       0                       0                       0
54                      10                       2                5.656854    4.92140467004946e-08    1.39493678211284e-07     3.6546580514469e-08
55                      10                       2                2.828427    1.89721274552957e-09    5.34625144807643e-09    2.72067584193702e-09
56                      10                       2                       0    4.25908958210954e-10    1.48978529267658e-09    1.15233437963698e-09
57                      12                       0                5.656854    1.28007118506984e-09    1.32701939884974e-10     1.3514781332448e-09
58                      12                       0                2.828427    8.78259571347137e-10    7.35424040599256e-10    1.97209397660284e-09
59                      12                       0                       0                       0                       0                       0
60                      14                       2                5.656854    7.91171918858074e-08    5.76827460572682e-07    1.54199906311214e-07
61                      14                       2                2.828427    2.87321701773499e-09    2.03926687569817e-08    1.05560918706891e-08
62                      14                       2                       0    1.03263837303865e-09    8.62284691655716e-09    6.72356768942333e-09
63                      16                       0                5.656854    7.37964924772375e-10    2.83749553344657e-10    3.14030027936463e-09
64                      16                       0                2.828427    4.60203443940872e-10    3.12527719336898e-10     7.0467365444094e-09
65                      16                       0                       0                       0                       0                       0
66                      18                       2                5.656854   -8.30268445807429e-09    8.05133766425129e-07    2.16567528356803e-07
67                      18                       2                2.828427   -2.36916400012181e-10    2.80059102686961e-08    1.45840285235419e-08
68                      18                       2                       0   -1.82606744353304e-10     1.2777603691397e-08    9.98937051300645e-09
69                      20                       0                5.656854   -9.96884504215278e-10    2.30882402539523e-10    2.95516234047034e-09
70                      20                       0                2.828427   -6.53583563337499e-10    2.34321713633109e-10    6.49954298108763e-09
71                      20                       0                       0                       0                       0                       0
72                      22                       2                5.656854   -8.40367208180292e-08    4.98678791564752e-07    1.32990393999088e-07
73                      22                       2                2.828427   -3.08113876446637e-09     1.7807729664677e-08    9.19468835778462e-09
74                      22                       2                       0   -1.23950799138138e-09    7.72533694675805e-09    6.00975554696656e-09
75                      24                       0                5.656854   -1.19781208525217e-09    7.56531715571275e-11    1.08804712202363e-09
76                      24                       0                2.828427   -8.59103501589032e-10    6.80300979274666e-10    1.62027323325772e-09
77                      24                       0                       0                       0                       0                       0
78                      26                       2                5.656854    -3.8604117876913e-08    9.89867191675394e-08     2.5831115147179e-08
79                      26                       2                2.828427   -1.51691996859814e-09    3.88117228819431e-09    1.96531656912715e-09
80                      26                       2                       0   -3.90421207540356e-10    1.17434363195432e-09    9.04113156414599e-10
81                      28                       0                5.656854   -1.84539923311098e-10    5.87431999997683e-12    9.86099812375147e-11
82                      28                       0                2.828427                       0                       0                       0
83                      28                       0                       0                       0                       0                       0
84                      30                       2                5.656854   -2.52632333413673e-09    4.00916945338623e-09    1.04565150123265e-09
85                      30                       2                2.828427   -7.83396526607159e-11    1.38229998490868e-10    6.82873877621003e-11
86                      30                       2                       0                       0                       0                       0
87                       0                       4                5.656854   -1.21488306015066e-09    1.32408514579618e-09    4.02616813341496e-10
88                       0                       4                2.828427   -1.12863756551321e-09    1.27308562651821e-09    7.57296334178812e-10
89                       0                       4                       0                       0                       0                       0
90                       2                       6                5.656854     7.3125857990738e-09    1.64847207148313e-08    6.11138333145491e-09
91                       2                       6                2.828427    1.89552246043247e-10    4.50090313811256e-10    3.36732014591026e-10
92                       2                       6                       0                       0                       0                       0
93                       4                       4                5.656854    2.47698483182397e-09    2.85098195290426e-09    8.63417521761704e-10
94                       4                       4                2.828427    2.33958338721029e-09    2.67053207064536e-09    1.62071776062805e-09
95                       4                       4                       0                       0                       0                       0
96                       6                       6                5.656854    8.88808077226549e-07    1.04755625353628e-06    3.93986391901027e-07
97                       6                       6                2.828427    2.79670161226316e-08    3.27384134194549e-08    2.38159195556595e-08
98                       6                       6                       0    1.21393516301363e-08    1.42349799176271e-08    1.53767014340561e-08
99                       8                       4                5.656854    5.48895790738654e-08    1.00143537351984e-07    3.08826843507646e-08
100                       8                       4                2.828427    6.00972419641678e-08     1.0882186087079e-07    6.51383225491666e-08
101                       8                       4                       0    7.91241139593306e-10    1.44837097678092e-09     1.3015494748426e-09
102                      10                       6                5.656854     1.2149520840305e-05    2.59036956782371e-05    1.01569845672322e-05
103                      10                       6                2.828427    2.82554647782577e-07    5.91315001509977e-07    4.45439300835737e-07
104                      10                       6                       0    9.52115428818548e-08    1.95031478835823e-07    2.15522449423465e-07
105                      12                       4                5.656854    2.50272366690754e-07    9.21305154091243e-07    2.94615910811158e-07
106                      12                       4                2.828427    2.32188189976971e-07    8.44214672921547e-07    5.20011150845675e-07
107                      12                       4                       0      2.869060067184e-09    1.04913053004116e-08    9.56801662082671e-09
108                      14                       6                5.656854    2.32555429309395e-05     0.00014118730188076    5.81651828003794e-05
109                      14                       6                2.828427     4.5270657021071e-07    2.61127831496815e-06    2.05078287664229e-06
110                      14                       6                       0    1.30332112157769e-07    7.10289722391036e-07    8.11766424614125e-07
111                      16                       4                5.656854    1.20348431815699e-07    2.20626962988095e-06    7.19548509999996e-07
112                      16                       4                2.828427    1.11825461004614e-07    1.89126189013594e-06    1.18631331370648e-06
113                      16                       4                       0    1.39281384672313e-09    2.24328618249493e-08    2.07358026557062e-08
114                      18                       6                5.656854   -1.77943902234531e-06    0.000196226591272059    8.18590965341629e-05
115                      18                       6                2.828427   -3.87767408643201e-08    3.55887338301356e-06    2.82924197178027e-06
116                      18                       6                       0   -1.19484078532898e-08    9.48336217403301e-07    1.09611722004079e-06
117                      20                       4                5.656854   -1.68524821420655e-07    2.07345310244662e-06    6.74956176001665e-07
118                      20                       4                2.828427   -1.54702322728038e-07    1.78250960610167e-06    1.11602879526033e-06
119                      20                       4                       0   -1.83553618097928e-09    2.10572710603973e-08    1.94439327084555e-08
120                      22                       6                5.656854   -2.50449301977563e-05    0.000119466190355969     4.8940828816911e-05
121                      22                       6                2.828427   -4.89448478293671e-07     2.2549833396959e-06    1.76157493451909e-06
122                      22                       6                       0   -1.40585791194089e-07    6.23217736561583e-07    7.09366990374491e-07
123                      24                       4                5.656854   -2.21183606610465e-07     7.0661820241966e-07    2.24674345317136e-07
124                      24                       4                2.828427   -2.10311381844419e-07     6.6443342031338e-07    4.07092447341513e-07
125                      24                       4                       0   -2.60234078432586e-09    8.39800555746724e-09    7.62122388735963e-09
126                      26                       6                5.656854   -8.94604883258947e-06    1.71497738102351e-05    6.66201202656525e-06
127                      26                       6                2.828427   -2.17920194529003e-07    4.10085110975947e-07     3.0650653977401e-07
128                      26                       6                       0   -7.59583390111008e-08    1.40947622361747e-07    1.54769393469731e-07
129                      28                       4                5.656854   -3.69399378298139e-08    6.20295985309166e-08    1.90393076553536e-08
130                      28                       4                2.828427   -4.17482683808653e-08    6.96107506799972e-08    4.15101553471817e-08
131                      28                       4                       0   -5.64902093463524e-10    9.63120606209739e-10    8.58796740053927e-10
132                      30                       6                5.656854   -5.08450563243925e-07    5.56120622803424e-07    2.08092121558082e-07
133                      30                       6                2.828427   -1.68934338758325e-08    1.83330937203855e-08    1.32902161644924e-08
134                      30                       6                       0   -7.31730215222279e-09    7.99899634631276e-09    8.65679668952996e-09
135                       0                       8                5.656854   -8.15606274976728e-08    5.72414068791725e-08    2.75320680547142e-08
136                       0                       8                2.828427   -8.73912491556749e-08     6.1406061755458e-08    5.70154890334625e-08
137                       0                       8                       0   -1.17040369791037e-09    8.11488135562967e-10    1.12860630018756e-09
138                       2                      10                5.656854    2.09919513186773e-07    2.26148022128862e-07    1.50547402922208e-07
139                       2                      10                2.828427    6.98211085682743e-09     8.0729613575757e-09    1.03175833229069e-08
140                       2                      10                       0    3.94039488388425e-09    2.91725927902683e-09    5.87276637334812e-09
141                       4                       8                5.656854     1.6943946246146e-07    1.23939802037759e-07    5.99864738708292e-08
142                       4                       8                2.828427    1.73120164133939e-07    1.26452290161714e-07    1.17689399299022e-07
143                       4                       8                       0    2.35546392541513e-09    1.69634140963116e-09     2.3706598587526e-09
144                       6                      10                5.656854    4.98466942061703e-05    3.27458834561713e-05    2.31045933689744e-05
145                       6                      10                2.828427    9.73546731971373e-07    6.43826543154033e-07    8.59273814491777e-07
146                       6                      10                       0    2.80256715752896e-07    1.86394785489871e-07    3.58738750873584e-07
147                       8                       8                5.656854    7.83497652802287e-06    9.76092665999693e-06    4.90319337488132e-06
148                       8                       8                2.828427    4.92140912162605e-06    6.00646523007927e-06    5.78079920830829e-06
149                       8                       8                       0    4.38813553880494e-08    5.25799455349947e-08    7.39375321685346e-08
150                      10                      10                5.656854     0.00148951620641955     0.00204326136603256     0.00153749419835382
151                      10                      10                2.828427    1.49893459974868e-05    1.95555076884378e-05    2.76106587126611e-05
152                      10                      10                       0    2.48511383157379e-06    3.10231175002259e-06    6.25248376562479e-06
153                      12                       8                5.656854    5.67684834526632e-05    0.000153128573186633    8.31584153789271e-05
154                      12                       8                2.828427    2.36707995359753e-05     6.2205212358885e-05    6.36128092629981e-05
155                      12                       8                       0    1.51386183347495e-07    3.82833167906157e-07    5.63611056188617e-07
156                      14                      10                5.656854     0.00294149787416788      0.0122513870637717       0.010412958334447
157                      14                      10                2.828427    2.27443150446192e-05    9.12562153508631e-05    0.000142139766096353
158                      14                      10                       0    3.03485261323372e-06    1.11465092266564e-05    2.40683146312756e-05
159                      16                       8                5.656854    1.95148229636781e-05    0.000409882672045685    0.000234494294765447
160                      16                       8                2.828427    8.92666163722806e-06    0.000142099557437852    0.000151999077296501
161                      16                       8                       0    6.13362826819344e-08    7.80772017460874e-07    1.19215356075262e-06
162                      18                      10                5.656854   -9.02991298315778e-05      0.0156794998193291       0.013812851136467
163                      18                      10                2.828427   -9.98831535322313e-07    0.000115321719486129    0.000185212350360762
164                      18                      10                       0   -2.20378579503027e-07    1.40531106665531e-05    3.11271515540805e-05
165                      20                       8                5.656854   -3.23734221749345e-05    0.000389777124463195    0.000222070178042457
166                      20                       8                2.828427   -1.34847223672024e-05     0.00013523472650716    0.000144097734378069
167                      20                       8                       0   -8.71171706504331e-08    7.44134099966756e-07    1.13221655205439e-06
168                      22                      10                5.656854    -0.00327967570328513       0.010614531208893     0.00888094453186574
169                      22                      10                2.828427   -2.55345615229998e-05    7.96410945956301e-05     0.00012219799515301
170                      22                      10                       0   -3.41102988316571e-06    9.94398520569228e-06    2.12398048655436e-05
171                      24                       8                5.656854   -4.75120229567988e-05    0.000111171749856671    5.93961678391108e-05
172                      24                       8                2.828427   -2.10371710390214e-05     4.7748137388058e-05     4.8248206940603e-05
173                      24                       8                       0   -1.40352763749528e-07    3.06745179849279e-07    4.47519618328577e-07
174                      26                      10                5.656854     -0.0010328429305722     0.00123384716830921    0.000915055435458217
175                      26                      10                2.828427   -1.12381562782223e-05    1.29138290850912e-05    1.80041104351285e-05
176                      26                      10                       0   -1.99027995906365e-06    2.21023418519812e-06    4.40858845797184e-06
177                      28                       8                5.656854   -4.74101174526753e-06      5.347463120346e-06    2.66392009245018e-06
178                      28                       8                2.828427   -3.21544158385368e-06    3.57241897652303e-06    3.41215989745816e-06
179                      28                       8                       0    -3.0903362807332e-08    3.38285075290374e-08    4.72425986037178e-08
180                      30                      10                5.656854    -2.4451801030844e-05    1.48441465347612e-05    1.03602132596296e-05
181                      30                      10                2.828427   -5.33491863933072e-07    3.26777995003275e-07    4.32207469750936e-07
182                      30                      10                       0   -1.68822342977065e-07    1.04286461855535e-07    1.99757993531038e-07
183                       0                      12                5.656854    -1.1356337010722e-06    3.49511621494306e-07    3.83348200602339e-07
184                       0                      12                2.828427   -9.78219311815062e-07    3.12162991120683e-07    6.41654246774724e-07
185                       0                      12                       0   -1.18477779773846e-08    3.85229442709775e-09    1.13701757950346e-08
186                       2                      14                5.656854    1.05352727020448e-06    3.19211026765168e-07     7.1695654002557e-07
187                       2                      14                2.828427    3.14822526303626e-08    1.07349201769065e-08    4.50941905390821e-08
188                       2                      14                       0    1.28845818332039e-08    4.98840466812948e-09    2.98357900812158e-08
189                       4                      12                5.656854    2.64013206286321e-06    8.45116381957967e-07    9.44413005128946e-07
190                       4                      12                2.828427    2.05344998097799e-06    6.79118214418201e-07    1.41561746515899e-06
191                       4                      12                       0    2.21384007542817e-08    7.53555900581299e-09    2.24051088482581e-08
192                       6                      14                5.656854    0.000412000019195563    7.00676256782309e-05    0.000192373931648116
193                       6                      14                2.828427    6.05722998729504e-06    1.13570460587945e-06    5.39879344369869e-06
194                       6                      14                       0     1.3300537384592e-06     2.6831712110493e-07    1.72106909949641e-06
195                       8                      12                5.656854    0.000329854743290929    0.000175551708515771    0.000221657038798215
196                       8                      12                2.828427    0.000101915749708676    5.62009714948268e-05    0.000127037822459726
197                       8                      12                       0    5.20914259869126e-07    2.93082607531266e-07    9.16957626590371e-07
198                      10                      14                5.656854      0.0106243977918437     0.00607091638332355     0.00972000709369534
199                      10                      14                2.828427    0.000125580666691758    4.64191924215806e-05    0.000252762882937301
200                      10                      14                       0    1.30641475994433e-05    5.06501496931784e-06    3.51970771775039e-05
201                      12                      12                5.656854     0.00279386723318576     0.00377808125003434     0.00520951074861216