ITEM: TIMESTEP
0
ITEM: NUMBER OF ATOMS
422
ITEM: BOX BOUNDS ff ff ff
0.0000000000000000e+00 2.3200000000000000e+02
0.0000000000000000e+00 2.3200000000000000e+02
0.0000000000000000e+00 2.3200000000000000e+02
ITEM: ATOMS id xu yu zu fx fy fz
1        113.148864857824        115.986453479663        108.659786663986     -0.0066213255051142    -0.00963327201185858      -0.154235018807732
2        118.833797661535        115.995539063098        108.663166821464    -0.00103453794482731     0.00426471826002968     -0.0315649211353419
3        117.365518725749        115.950968844597        108.620027731832    0.000337043706205269    -0.00965083470109072       0.315216593718246
4        114.575719660259        115.989599564246         108.66150162131    -0.00130982532304938     0.00466490100828174      -0.121326896460254
5        116.662912368143        114.711562050537        108.618691200373      -0.002990677053903     0.00780049480543238       0.175455710909586
6        115.248735092079        114.722200709923        108.630762101212     0.00135092788416528    -0.00517301988413527     -0.0151985405666559
7        115.290749904598        117.241430244958         108.67526203957      0.0002943511938859    0.000284012425908194     -0.0340413942833829
8        116.710897859586        117.236762264747        108.669161818164     0.00184892787665328     0.00173377182782954     -0.0513666448581497
9        114.491790905804        113.522480226222        108.630887985047      0.0115184007390146      0.0305924124497047       0.594069798225018
10        117.463620665113        113.554468586267        108.659921182381    0.000912420090784051    -0.00152033075088372     -0.0336017038325983
11        114.548867997574        118.457350098694        108.692858446801    0.000116320889462522    -0.00139756201029726     -0.0838240612704268
12        117.491692968773        118.460333672297        108.692886858118     -0.0236430774157704     -0.0176010087073284      -0.613710426330322
13         113.16919122989        113.604324557552        108.698733969654     -0.0201214873591284    -0.00755676381767791      -0.273863266348242
14        113.143251794545        118.425357748705        108.677656986431    -0.00040799694888881       0.017582319301793      -0.298600251471494
15        118.862215957393        113.579440024797        108.668101731225    -0.00622917756772564      0.0114659655065631      -0.315821100847162
16        118.804583608192        118.368780307276        108.615331836696      0.0288114000970808        0.03179225730015       0.732481638091402
17        112.381231309334        117.148755414835        108.611289471195      0.0341085641985215    -0.00136599361044918       0.986289073930372
18        112.462493511732        114.804544268056        108.690118452993      0.0196157980447372    0.000977874493501812      -0.404720545990965
19        119.552465227979        114.784271143558        108.662698031286     -0.0031329540377526    0.000453428389782646       0.254592173249592
20        119.570222555323        117.227501823254        108.682888580295    -0.00228537672807158     -0.0180589388415716      -0.328452342185879
21        120.998857565593        114.868157628791        108.700576542969     0.00379258990870489       0.001654737250866      -0.177525196672276
22         121.00030765868        117.205804526005         108.70437029643    -0.00767637140315793     -0.0153808867260499      -0.248618894638743
23        110.986565039976        114.780398196308        108.622793366815     -0.0130494246843291     -0.0158783269197556       0.523793950500295
24        111.065068002654        117.195097961782        108.703639989509     -0.0330547501611195     -0.0136398915304361      -0.641060236277059
25        121.634790790027        116.040061407405        108.704918329287     0.00253331271699499     0.00147654296369394    -0.00297578447528094
26        110.413847996319        116.007907400512        108.684011421848    0.000763868825665503      0.0118756207957165      -0.217126473054831
27        121.580780331204        118.157506426306         108.62843828538     0.00569447673990695      0.0107960137001205       0.178845189245414
28        121.625539862694        113.810059145688        108.668791575994   -0.000380107323849193    -0.00273304756863038       0.083486855840533
29        110.363405199908        118.178215936477        108.660444449181     0.00369548606052279      0.0119591983300918       0.212158886424674
30        110.335902257298        113.758506183767        108.628535267037   -0.000124078904658066   -0.000163399790709555     -0.0431408517687542
31        112.642568254005        112.658156231856        108.699555431762     0.00413397064815138    -0.00224148661449141      0.0684392953456388
32        112.624803951927        119.382183772537        108.688554451328    -0.00146132085449038    -0.00113773237768504      0.0303734222482103
33         119.33612887086        112.578079072539        108.612669337908     0.00523919916722805    -0.00922130379268077       0.211370590141497
34        119.359882906367        119.343624959614        108.643186699225   -0.000948503485033459     0.00412101476961545       -0.12531549517407
35         115.01165406659        112.618328057602        108.706221493723    6.87935185618455e-05     -0.0222991341753814      -0.268108761878068
36        114.984973723494        119.431270760953        108.686402614812   -7.19650042070967e-05    0.000547145532167948      0.0776804584601085
37        117.061973721729        112.615006707447        108.700835797708    0.000391977061759738    -0.00525474083339039      -0.116808926815345
38        117.009806416468        119.402462449521        108.655529958937   -0.000684871662930592     0.00586524555325446       0.156754098812447
39                     100                     100              105.656854                       0                       0                       0
40                     100                     100              102.828427                       0                       0                       0
41                     100                     100                     100                       0                       0                       0
42                     102                     102              105.656854                       0                       0                       0
43                     102                     102              102.828427                       0                       0                       0
44                     102                     102                     100                       0                       0                       0
45                     104                     100              105.656854                       0                       0                       0
46                     104                     100              102.828427                       0                       0                       0
47                     104                     100                     100                       0                       0                       0
48                     106                     102              105.656854                       0                       0                       0
49                     106                     102              102.828427                       0                       0                       0
50                     106                     102                     100                       0                       0                       0
51                     108                     100              105.656854                       0                       0                       0
52                     108                     100              102.828427                       0                       0                       0
53                     108                     100                     100                       0                       0                       0
54                     110                     102              105.656854                       0                       0                       0
55                     110                     102              102.828427                       0                       0                       0
56                     110                     102                     100                       0                       0                       0
57                     112                     100              105.656854                       0                       0                       0
58                     112                     100              102.828427                       0                       0                       0
59                     112                     100                     100                       0                       0                       0
60                     114                     102              105.656854                       0                       0                       0
61                     114                     102              102.828427                       0                       0                       0
62                     114                     102                     100                       0                       0                       0
63                     116                     100              105.656854                       0                       0                       0
64                     116                     100              102.828427                       0                       0                       0
65                     116                     100                     100                       0                       0                       0
66                     118                     102              105.656854                       0                       0                       0
67                     118                     102              102.828427                       0                       0                       0
68                     118                     102                     100                       0                       0                       0
69                     120                     100              105.656854                       0                       0                       0
70                     120                     100              102.828427                       0                       0                       0
71                     120                     100                     100                       0                       0                       0
72                     122                     102              105.656854                       0                       0                       0
73                     122                     102              102.828427                       0                       0                       0
74                     122                     102                     100                       0                       0                       0
75                     124                     100              105.656854                       0                       0                       0
76                     124                     100              102.828427                       0                       0                       0
77                     124                     100                     100                       0                       0                       0
78                     126                     102              105.656854                       0                       0                       0
79                     126                     102              102.828427                       0                       0                       0
80                     126                     102                     100                       0                       0                       0
81                     128                     100              105.656854                       0                       0                       0
82                     128                     100              102.828427                       0                       0                       0
83                     128                     100                     100                       0                       0                       0
84                     130                     102              105.656854                       0                       0                       0
85                     130                     102              102.828427                       0                       0                       0
86                     130                     102                     100                       0                       0                       0
87                     100                     104              105.656854                       0                       0                       0
88                     100                     104              102.828427                       0                       0                       0
89                     100                     104                     100                       0                       0                       0
90                     102                     106              105.656854                       0                       0                       0
91                     102                     106              102.828427                       0                       0                       0
92                     102                     106                     100                       0                       0                       0
93                     104                     104              105.656854                       0                       0                       0
94                     104                     104              102.828427                       0                       0                       0
95                     104                     104                     100                       0                       0                       0
96                     106                     106              105.656854                       0                       0                       0
97                     106                     106              102.828427                       0                       0                       0
98                     106                     106                     100                       0                       0                       0
99                     108                     104              105.656854                       0                       0                       0
100                     108                     104              102.828427                       0                       0                       0
101                     108                     104                     100                       0                       0                       0
102                     110                     106              105.656854                       0                       0                       0
103                     110                     106              102.828427                       0                       0                       0
104                     110                     106                     100                       0                       0                       0
105                     112                     104              105.656854                       0                       0                       0
106                     112                     104              102.828427                       0                       0                       0
107                     112                     104                     100                       0                       0                       0
108                     114                     106              105.656854                       0                       0                       0
109                     114                     106              102.828427                       0                       0                       0
110                     114                     106                     100                       0                       0                       0
111                     116                     104              105.656854                       0                       0                       0
112                     116                     104              102.828427                       0                       0                       0
113                     116                     104                     100                       0                       0                       0
114                     118                     106              105.656854                       0                       0                       0
115                     118                     106              102.828427                       0                       0                       0
116                     118                     106                     100                       0                       0                       0
117                     120                     104              105.656854                       0                       0                       0
118                     120                     104              102.828427                       0                       0                       0
119                     120                     104                     100                       0                       0                       0
120                     122                     106              105.656854                       0                       0                       0
121                     122                     106              102.828427                       0                       0                       0
122                     122                     106                     100                       0                       0                       0
123                     124                     104              105.656854                       0                       0                       0
124                     124                     104              102.828427                       0                       0                       0
125                     124                     104                     100                       0                       0                       0
126                     126                     106              105.656854                       0                       0                       0
127                     126                     106              102.828427                       0                       0                       0
128                     126                     106                     100                       0                       0                       0
129                     128                     104              105.656854                       0                       0                       0
130                     128                     104              102.828427                       0                       0                       0
131                     128                     104                     100                       0                       0                       0
132                     130                     106              105.656854                       0                       0                       0
133                     130                     106              102.828427                       0                       0                       0
134                     130                     106                     100                       0                       0                       0
135                     100                     108              105.656854                       0                       0                       0
136                     100                     108              102.828427                       0                       0                       0
137                     100                     108                     100                       0                       0                       0
138                     102                     110              105.656854                       0                       0                       0
139                     102                     110              102.828427                       0                       0                       0
140                     102                     110                     100                       0                       0                       0
141                     104                     108              105.656854                       0                       0                       0
142                     104                     108              102.828427                       0                       0                       0
143                     104                     108                     100                       0                       0                       0
144                     106                     110              105.656854                       0                       0                       0
145                     106                     110              102.828427                       0                       0                       0
146                     106                     110                     100                       0                       0                       0
147                     108                     108              105.656854                       0                       0                       0
148                     108                     108              102.828427                       0                       0                       0
149                     108                     108                     100                       0                       0                       0
150                     110                     110              105.656854                       0                       0                       0
151                     110                     110              102.828427                       0                       0                       0
152                     110                     110                     100                       0                       0                       0
153                     112                     108              105.656854                       0                       0                       0
154                     112                     108              102.828427                       0                       0                       0
155                     112                     108                     100                       0                       0                       0
156                     114                     110              105.656854                       0                       0                       0
157                     114                     110              102.828427                       0                       0                       0
158                     114                     110                     100                       0                       0                       0
159                     116                     108              105.656854                       0                       0                       0
160                     116                     108              102.828427                       0                       0                       0
161                     116                     108                     100                       0                       0                       0
162                     118                     110              105.656854                       0                       0                       0
163                     118                     110              102.828427                       0                       0                       0
164                     118                     110                     100                       0                       0                       0
165                     120                     108              105.656854                       0                       0                       0
166                     120                     108              102.828427                       0                       0                       0
167                     120                     108                     100                       0                       0                       0
168                     122                     110              105.656854                       0                       0                       0
169                     122                     110              102.828427                       0                       0                       0
170                     122                     110                     100                       0                       0                       0
171                     124                     108              105.656854                       0                       0                       0
172                     124                     108              102.828427                       0                       0                       0
173                     124                     108                     100                       0                       0                       0
174                     126                     110              105.656854                       0                       0                       0
175                     126                     110              102.828427                       0                       0                       0
176                     126                     110                     100                       0                       0                       0
177                     128                     108              105.656854                       0                       0                       0
178                     128                     108              102.828427                       0                       0                       0
179                     128                     108                     100                       0                       0                       0
180                     130                     110              105.656854                       0                       0                       0
181                     130                     110              102.828427                       0                       0                       0
182                     130                     110                     100                       0                       0                       0
183                     100                     112              105.656854                       0                       0                       0
184                     100                     112              102.828427                       0                       0                       0
185                     100                     112                     100                       0                       0                       0
186                     102                     114              105.656854                       0                       0                       0
187                     102                     114              102.828427                       0                       0                       0
188                     102                     114                     100                       0                       0                       0
189                     104                     112              105.656854                       0                       0                       0
190                     104                     112              102.828427                       0                       0                       0
191                     104                     112                     100                       0                       0                       0
192                     106                     114              105.656854                       0                       0                       0
193                     106                     114              102.828427                       0                       0                       0
194                     106                     114                     100                       0                       0                       0
195                     108                     112              105.656854                       0                       0                       0
196                     108                     112              102.828427                       0                       0                       0
197                     108                     112                     100                       0                       0                       0
198                     110                     114              105.656854                       0                       0                       0
199                     110                     114              102.828427                       0                       0                       0
200                     110                     114                     100                       0                       0                       0
201                     112                     112              105.656854                       0                       0                       0