ITEM: TIMESTEP
0
ITEM: NUMBER OF ATOMS
422
ITEM: BOX BOUNDS pp pp pp
0.0000000000000000e+00 3.2000000000000000e+01
0.0000000000000000e+00 3.2000000000000000e+01
0.0000000000000000e+00 3.2000000000000000e+01
ITEM: ATOMS id xu yu zu fx fy fz
1        13.1459321938386        17.0835208156773                 8.65685     -0.0245947657387966     -0.0263641253037888      0.0667344489552466
2        18.8274848400711        17.0892262416344                 8.65685      0.0246795505698468     -0.0271300149417099      0.0695595111689631
3         17.402344993917         17.087795112765                 8.65685     -0.0218881328426695     -0.0333409978012656      0.0884862685259308
4         14.571072038949        17.0849519429358                 8.65685      0.0212572196836576     -0.0339911194147528      0.0901761904521027
5        16.7010751677692        15.8497248501637                 8.65685    -0.00469048677599346     0.00265241065016872    0.000882786660847781
6        15.2748269908674        15.8482926087119                 8.65685     0.00484121207590366     0.00279057532416738     0.00125784287028999
7        15.2723418650276        18.3230222053877                 8.65685      0.0322707679091205     0.00853964893503242      0.0599058849794938
8        16.6985900414216        18.3244544465825                 8.65685     -0.0312910354285151     0.00819843008033923      0.0566449141950326
9        14.5177569207574        14.6484462411751                 8.65685      0.0259744045833599      0.0325423037614573       0.126838422282165
10        17.4605534827313        14.6514014038861                 8.65685     -0.0266121423437137      0.0321442754553323       0.124450449783217
11        14.5128635507729         19.521345651893                 8.65685     0.00823312852940489      0.0205866515758597      0.0313768198022159
12        17.4556601106552        19.5243008141789                 8.65685    -0.00850736282805314      0.0200478762843512      0.0302715008447532
13        13.1273112602358        14.6624445878976                 8.65685     -0.0316976784941935      0.0240907956236905      0.0877596091531145
14        13.1224488081137        19.5045547622743                 8.65685     -0.0103208274537445      0.0153996732794115      0.0205349350371651
15         18.850968226168        14.6681922935721                 8.65685      0.0315030404702681      0.0247590122984806      0.0896881216405153
16        18.8461057714963        19.5103024705805                 8.65685      0.0102229091042673      0.0157760601168013      0.0213187327594304
17         12.426795838139        18.2943199436399                 8.65685     -0.0206824865358099     0.00489310625812775      0.0326207902616053
18        12.4292290587396        15.8712798150634                 8.65685    -0.00284242782164053     0.00136859252251628     -0.0024405465505336
19        19.5466211966922        15.8784271122721                 8.65685     0.00298510239484748     0.00135456920963917    -0.00225640121309084
20        19.5441879750283        18.3014672429596                 8.65685      0.0219224589880047     0.00522961066360347      0.0346237966345753
21        20.9551350226241        15.9244350858224                 8.65685    -0.00564718361934866     0.00198407039625857     0.00450653957274663
22        20.9527913622507        18.2582882295758                 8.65685     -0.0386964039079553     0.00962100798528276      0.0902816607766891
23        11.0206256731611        15.9144588294926                 8.65685     0.00575615226881463     0.00232090920610744     0.00502342991424256
24        11.0182820131454        18.2483119722736                 8.65685      0.0392491293936186     0.00962982773872397      0.0946114544071589
25        21.5867264607395        17.0919970781177                 8.65685    -0.00695532647213723     -0.0153892707106511      0.0343968625974209
26        10.3866905744716        17.0807499786644                 8.65685     0.00650891855033918      -0.015586857061998       0.034419311818431
27         21.609196045824        19.2859221409264                 8.65685    -0.00387655572891971      0.0125802069899084      0.0149879037942837
28        21.6136022867001        14.8981215696947                 8.65685      -0.006670720368286      0.0156170032326545      0.0356422773059368
29        10.3598147507275        19.2746254872963                 8.65685     0.00369221297298885      0.0129231350266012      0.0159441485900403
30        10.3642209902605        14.8868249167297                 8.65685     0.00643961111075317      0.0157942668970515      0.0368377298584037
31        12.5998668222426        13.7154548000933                 8.65685    -0.00295101107265935   -0.000528401455710638    -0.00473322149153065
32        12.5931035005993        20.4504833212092                 8.65685   -0.000297773256125011   -0.000385903320108044    -0.00966122439219564
33        19.3803135329519        13.7222637346313                 8.65685     0.00304600850365658   -0.000541779723446269    -0.00447014173485886
34        19.3735502071424         20.457292260389                 8.65685    0.000329875330677257   -0.000440345833623984    -0.00957461460622769
35        14.9622865728669        13.6689605638796                 8.65685      0.0042183177938071     -0.0013834620574133     0.00179219905504183
36         14.955425108682        20.5017221461408                 8.65685    0.000680446771915422    -0.00129116597295637    -0.00812757200700463
37        17.0179919240215        13.6710249097393                 8.65685    -0.00419593955065023    -0.00133622161158395     0.00145974210717687
38         17.011130457531        20.5037864905846                 8.65685   -0.000669086828375187    -0.00122500724404603    -0.00824108127642527
39                       0                       0                5.656854                       0                       0                       0
40                       0                       0                2.828427                       0                       0                       0
41                       0                       0                       0                       0                       0                       0
42                       2                       2                5.656854                       0                       0                       0
43                       2                       2                2.828427                       0                       0                       0
44                       2                       2                       0                       0                       0                       0
45                       4                       0                5.656854    1.64836945937411e-10   -2.90828609854906e-10    7.04776547810939e-11
46                       4                       0                2.828427                       0                       0                       0
47                       4                       0                       0                       0                       0                       0
48                       6                       2                5.656854    2.89507398312705e-09    6.39225993726443e-09    1.53921514405108e-09
49                       6                       2                2.828427    9.72181095757689e-11    2.29040557898939e-10    1.07545045617125e-10
50                       6                       2                       0                       0                       0                       0
51                       8                       0                5.656854    2.09282041105286e-09   -5.78122205158322e-09    1.44392853656631e-09
52                       8                       0                2.828427    2.14805573227161e-09   -6.19395154864565e-09    2.97183603758267e-09
53                       8                       0                       0                       0                       0                       0
54                      10                       2                5.656854    1.52709674635269e-08    6.02512827622078e-08    1.54723673028804e-08
55                      10                       2                2.828427    5.70700126625671e-10    2.19817392000318e-09    1.10185503077824e-09
56                      10                       2                       0    8.81073329088629e-11    3.97027058239916e-10    2.93373475274459e-10
57                      12                       0                5.656854    3.79620251295144e-09   -2.47528439684181e-08    6.35477246956672e-09
58                      12                       0                2.828427    4.28132779768161e-09   -3.04270154795985e-08    1.49646212901051e-08
59                      12                       0                       0    2.69489882745788e-11   -2.00687746332243e-10    1.50694207332841e-10
60                      14                       2                5.656854    9.58260795919445e-09    1.43060229838355e-07    3.89338305782578e-08
61                      14                       2                2.828427    3.78860813952335e-10     5.3662229709985e-09    2.72534727186294e-09
62                      14                       2                       0    8.13548987488944e-11    1.45404598813875e-09     1.0771549872855e-09
63                      16                       0                5.656854    4.20894739863014e-12   -3.69018287297242e-08    9.55717093374349e-09
64                      16                       0                2.828427   -7.62078370286076e-12   -4.40289494784763e-08    2.20257488431955e-08
65                      16                       0                       0   -8.44429434720817e-14   -3.77401235432236e-10    2.83742717552015e-10
66                      18                       2                5.656854   -9.82112466685934e-09    1.42207739781217e-07    3.87258239844914e-08
67                      18                       2                2.828427   -3.87471411822612e-10    5.33711927259653e-09     2.7118960258969e-09
68                      18                       2                       0   -8.35657034108734e-11    1.44746957891268e-09    1.07203841574039e-09
69                      20                       0                5.656854   -3.81127142044752e-09   -2.47461625691217e-08    6.35181950407769e-09
70                      20                       0                2.828427   -4.30859631872208e-09     -3.043659187553e-08    1.49673980773814e-08
71                      20                       0                       0    -2.7402281073303e-11   -2.00712389402123e-10    1.50774567536267e-10
72                      22                       2                5.656854   -1.51444079026887e-08    5.92688630006582e-08    1.52239270721497e-08
73                      22                       2                2.828427   -5.66469424972897e-10     2.1648534989913e-09    1.08552041381558e-09
74                      22                       2                       0   -8.75510192288623e-11    3.91762964975323e-10    2.89315553729375e-10
75                      24                       0                5.656854   -2.08880673923236e-09   -5.74941480357941e-09    1.43577673723506e-09
76                      24                       0                2.828427   -2.14753953782604e-09   -6.16246838959763e-09    2.95768734342441e-09
77                      24                       0                       0                       0                       0                       0
78                      26                       2                5.656854   -2.83350669584994e-09     6.2345976662839e-09    1.50028138692768e-09
79                      26                       2                2.828427   -9.52859880344387e-11    2.23671249886066e-10    1.04951270387634e-10
80                      26                       2                       0                       0                       0                       0
81                      28                       0                5.656854    -1.6365738122371e-10   -2.87619869483971e-10    6.97338695356708e-11
82                      28                       0                2.828427                       0                       0                       0
83                      28                       0                       0                       0                       0                       0
84                      30                       2                5.656854                       0                       0                       0
85                      30                       2                2.828427                       0                       0                       0
86                      30                       2                       0                       0                       0                       0
87                       0                       4                5.656854                       0                       0                       0
88                       0                       4                2.828427                       0                       0                       0
89                       0                       4                       0                       0                       0                       0
90                       2                       6                5.656854    3.05115322363195e-08    3.11681192668413e-08    1.02903575974344e-08
91                       2                       6                2.828427    1.03952969415106e-09    1.06991903647993e-09    6.93961166255014e-10
92                       2                       6                       0    4.04759183336563e-10    4.30048895161787e-10    4.18920009448244e-10
93                       4                       4                5.656854     2.7652804747343e-09    4.16377155012277e-09    1.14558368402585e-09
94                       4                       4                2.828427    2.36792932590816e-09    3.63454296836328e-09    1.99804001642755e-09
95                       4                       4                       0                       0                       0                       0
96                       6                       6                5.656854    8.30800275447485e-07    1.35579413783689e-06    4.56886964121788e-07
97                       6                       6                2.828427    2.62366447554128e-08    4.23642045918508e-08    2.76419890181437e-08
98                       6                       6                       0    1.19310997425338e-08    1.90350854297564e-08    1.84436588237632e-08
99                       8                       4                5.656854    2.81626146470381e-08    7.13555817493484e-08     2.0135501761239e-08
100                       8                       4                2.828427    3.15399591992895e-08     8.0211767454167e-08    4.39526532555616e-08
101                       8                       4                       0    3.75706473449471e-10    9.48090687922879e-10    7.91125159966551e-10
102                      10                       6                5.656854    4.76226765306682e-06    1.53942431985689e-05    5.41528451919645e-06
103                      10                       6                2.828427    1.20898830157342e-07    3.85188421009584e-07    2.60283050921356e-07
104                      10                       6                       0    4.40102186817215e-08    1.37780271305883e-07    1.36991685647457e-07
105                      12                       4                5.656854    5.36097804741108e-08    3.39411570589635e-07     9.8247239283525e-08
106                      12                       4                2.828427    5.60504872961564e-08    3.48175502511211e-07    1.94684897828892e-07
107                      12                       4                       0    7.15929519863241e-10    4.70921404434583e-09    3.92186998730087e-09
108                      14                       6                5.656854    2.78441648819387e-06    4.18579270690171e-05    1.51118454711727e-05
109                      14                       6                2.828427    6.96363831498998e-08    9.52400945206161e-07    6.59131576576429e-07
110                      14                       6                       0    2.54698443137995e-08    3.12326128378179e-07    3.16829825733078e-07
111                      16                       4                5.656854   -5.11383506763685e-10    5.06927084689312e-07    1.47973948255277e-07
112                      16                       4                2.828427   -5.17233612568067e-10    5.12518333224719e-07    2.88699973804657e-07
113                      16                       4                       0   -6.74718606213557e-12    6.67024640506822e-09    5.60746505078642e-09
114                      18                       6                5.656854    -2.8594868493049e-06    4.16081197301283e-05     1.5016281047883e-05
115                      18                       6                2.828427   -7.13638004802897e-08    9.47446241533897e-07    6.55487018175865e-07
116                      18                       6                       0   -2.60442822049529e-08    3.10940364574442e-07    3.15330174470896e-07
117                      20                       4                5.656854   -5.36234321181666e-08    3.35299419535531e-07     9.7028859118017e-08
118                      20                       4                2.828427   -5.61598196804121e-08    3.44544466967418e-07    1.92571347530266e-07
119                      20                       4                       0   -7.18782563850926e-10    4.66631580906404e-09    3.88440373142696e-09
120                      22                       6                5.656854   -4.70939872837704e-06    1.51136706574083e-05    5.31235992436815e-06
121                      22                       6                2.828427   -1.19812038573989e-07    3.79020444506088e-07    2.55925016523347e-07
122                      22                       6                       0   -4.37107121567173e-08    1.35893053832105e-07    1.35020608497469e-07
123                      24                       4                5.656854   -2.76791562227652e-08    6.97881211672491e-08    1.96800562869921e-08
124                      24                       4                2.828427   -3.10554024171662e-08    7.85962995371767e-08    4.30389815924476e-08
125                      24                       4                       0   -3.70789522794957e-10    9.31308437948065e-10    7.76568199928035e-10
126                      26                       6                5.656854   -8.10239231843057e-07     1.3176859632171e-06    4.43628004645924e-07
127                      26                       6                2.828427   -2.56572446535569e-08    4.12895147059714e-08    2.69163433402596e-08
128                      26                       6                       0   -1.17043769086252e-08    1.86125445586373e-08    1.80181718445101e-08
129                      28                       4                5.656854   -2.68997785456213e-09    4.04000504219104e-09    1.11066183359255e-09
130                      28                       4                2.828427   -2.30799659376763e-09    3.53384335013373e-09    1.94096279738111e-09
131                      28                       4                       0                       0                       0                       0
132                      30                       6                5.656854   -2.95297788484004e-08    3.01149519166517e-08    9.93248059594139e-09
133                      30                       6                2.828427   -1.00846832336792e-09    1.03633052779635e-09     6.7144213646031e-10
134                      30                       6                       0   -3.93858161483878e-10    4.17890722800102e-10    4.06559662658798e-10
135                       0                       8                5.656854    1.43594023805553e-10    5.43123080758065e-09     2.2517126975757e-09
136                       0                       8                2.828427    6.44647483386864e-10    6.64923729908131e-09    5.34227755242608e-09
137                       0                       8                       0                       0                       0                       0
138                       2                      10                5.656854     1.4480030917216e-06    8.98284281440661e-07    5.00315629395427e-07
139                       2                      10                2.828427    4.43621443236845e-08    2.76294562767774e-08    2.95196901275561e-08
140                       2                      10                       0    1.92589996422933e-08    1.18769105172514e-08    1.88071438325884e-08
141                       4                       8                5.656854    3.28011210690611e-07    3.36770883283297e-07    1.41413965322154e-07
142                       4                       8                2.828427    3.10249634683398e-07    3.16580861575095e-07    2.56308884029841e-07
143                       4                       8                       0    3.85132597870634e-09    3.91506040987981e-09    4.72328265255638e-09
144                       6                      10                5.656854    9.40618088172733e-05    9.79698590057467e-05     5.6992215397458e-05
145                       6                      10                2.828427    1.63010052490535e-06    1.67073517048549e-06    1.85230203620364e-06
146                       6                      10                       0    4.21640415895583e-07    4.25556458424713e-07    6.85171726264757e-07
147                       8                       8                5.656854    5.95493794287906e-06    1.11671476691214e-05    4.89740656441852e-06
148                       8                       8                2.828427    3.87539342548705e-06    7.08866047115984e-06    5.96069562704601e-06
149                       8                       8                       0    3.56016140381148e-08    6.35099215244812e-08    7.81294953075786e-08
150                      10                      10                5.656854    0.000878442807330763     0.00202004044009718     0.00127760061793603
151                      10                      10                2.828427    9.49024614247676e-06    2.10286324665966e-05    2.48971634249777e-05
152                      10                      10                       0     1.6731429876152e-06    3.53894206681207e-06     5.9934188541395e-06
153                      12                       8                5.656854    1.46646727820464e-05    7.44071584992337e-05     3.4801188164212e-05
154                      12                       8                2.828427     7.4470719129641e-06     3.6034297403403e-05    3.19128916299168e-05
155                      12                       8                       0    5.60864496990512e-08    2.56712704924794e-07    3.28637343616542e-07
156                      14                      10                5.656854    0.000376383594358324     0.00604531377509658     0.00412148431368596
157                      14                      10                2.828427    4.26068553984986e-06    5.23097675941797e-05    6.58646881573211e-05
158                      14                      10                       0    7.88943916614864e-07    7.67958242884872e-06    1.36328536597573e-05
159                      16                       8                5.656854   -1.21997828702706e-07    0.000110690789741075    5.27219693845639e-05
160                      16                       8                2.828427   -5.90817445060169e-08    5.19986885536541e-05    4.68668023983475e-05
161                      16                       8                       0   -4.22608170430952e-10     3.6017987280075e-07    4.68411373326492e-07
162                      18                      10                5.656854    -0.00039129218867583     0.00601526731678087      0.0040976849941221
163                      18                      10                2.828427   -4.38872139101859e-06    5.20951557133662e-05    6.55484388449209e-05
164                      18                      10                       0   -8.07773817396575e-07    7.65366693808652e-06    1.35788777251505e-05
165                      20                       8                5.656854   -1.46707789242994e-05    7.34580156050929e-05    3.43259734081907e-05
166                      20                       8                2.828427   -7.46172490857835e-06    3.56568989679503e-05     3.1552938677655e-05
167                      20                       8                       0   -5.62616830735573e-08    2.54508630224808e-07     3.2558033410846e-07
168                      22                      10                5.656854   -0.000867267186280836     0.00198051762445677     0.00125036190170876
169                      22                      10                2.828427   -9.40675179270105e-06    2.07014129988213e-05     2.4472491028311e-05
170                      22                      10                       0   -1.66327436861726e-06    3.49503127124581e-06    5.91144562048273e-06
171                      24                       8                5.656854   -5.83219473478696e-06    1.08841059705653e-05    4.76733640968948e-06
172                      24                       8                2.828427   -3.80934028776946e-06     6.9355055200734e-06    5.82525197186885e-06
173                      24                       8                       0   -3.51151711708861e-08    6.23614796798121e-08    7.66367159340859e-08
174                      26                      10                5.656854   -9.13281680473559e-05    9.48454283225485e-05     5.5074180453676e-05
175                      26                      10                2.828427   -1.59116361311236e-06    1.62617102202786e-06    1.79999735159773e-06
176                      26                      10                       0   -4.13515268739253e-07    4.16181737352789e-07    6.69118558713485e-07
177                      28                       8                5.656854   -3.17656107870188e-07    3.25402432111515e-07    1.36489913341261e-07
178                      28                       8                2.828427   -3.01651228922678e-07    3.07140484253502e-07    2.48365723759156e-07
179                      28                       8                       0   -3.75965809093819e-09    3.81397831686711e-09    4.59567316170832e-09
180                      30                      10                5.656854   -1.39663728880364e-06     8.6605684457402e-07     4.8158627222899e-07
181                      30                      10                2.828427   -4.29496730824585e-08    2.67317542309423e-08    2.85186452544497e-08
182                      30                      10                       0   -1.87312613447316e-08     1.1538151943314e-08    1.82431949168164e-08
183                       0                      12                5.656854     2.6327587382728e-09    4.92697258602139e-08    3.94805039419694e-08
184                       0                      12                2.828427    2.69464171452297e-09    5.57054111422644e-08    8.57263523603847e-08
185                       0                      12                       0     3.0801474904325e-11    7.05838144849763e-10    1.69484728849727e-09
186                       2                      14                5.656854    1.42006632852826e-05    3.30606586410128e-06    4.92169124734523e-06
187                       2                      14                2.828427    3.51198795324453e-07    8.55368585480948e-08    2.35410664489503e-07
188                       2                      14                       0    1.24428354809423e-07    3.11641220276448e-08    1.21887415350394e-07
189                       4                      12                5.656854     1.2220598880691e-05    6.30347974952387e-06    5.44307251322537e-06
190                       4                      12                2.828427    7.37599498888741e-06    3.87776109751861e-06    6.26827808701323e-06
191                       4                      12                       0    6.37106177399592e-08    3.40731059471002e-08    7.86716682584121e-08
192                       6                      14                5.656854     0.00215902876089612    0.000777572117430674     0.00136280848878878
193                       6                      14                2.828427    2.12067881152158e-05    8.20393688855836e-06    2.50628598824237e-05
194                       6                      14                       0    3.42232314903477e-06    1.38883579170606e-06    5.74589149414627e-06
195                       8                      12                5.656854    0.000552250700007237    0.000591644427849467    0.000552482945188054
196                       8                      12                2.828427    0.000146185369976867    0.000150152143415986    0.000258577254930222
197                       8                      12                       0    6.72351370994944e-07    6.67599959643875e-07    1.62054087247367e-06
198                      10                      14                5.656854     0.00564298038012225    -0.00821822861366403     -0.0373156767105162
199                      10                      14                2.828427    0.000131426216792349    0.000130032905154339    0.000442445562615347
200                      10                      14                       0    1.32017288656753e-05    1.22945063609923e-05    5.51737221239693e-05
201                      12                      12                5.656854     0.00129710545604792     0.00421616008136116       0.004567906736008