ITEM: TIMESTEP
0
ITEM: NUMBER OF ATOMS
422
ITEM: BOX BOUNDS ff ff ff
0.0000000000000000e+00 2.3200000000000000e+02
0.0000000000000000e+00 2.3200000000000000e+02
0.0000000000000000e+00 2.3200000000000000e+02
ITEM: ATOMS id xu yu zu fx fy fz
1        113.145932193839        115.983520815677              110.356854     0.00299338172183061    -0.00124541387863179    -0.00780517338356723
2        118.827484840071        115.989226241634              110.356854    -0.00554125071798758     -0.0012129217216247    -0.00744334830490793
3        117.402344993917        115.987795112765              110.356854     0.00296741888631355     0.00266735588404821    -0.00812914935520716
4        114.571072038949        115.984951942936              110.356854     0.00248023734674158     0.00270972505501588    -0.00775467627671183
5        116.701075167769        114.749724850164              110.356854     0.00354874711221423     0.00431767462742344     -0.0079856908530057
6        115.274826990867        114.748292608712              110.356854     0.00361102432803355     0.00432972708367974    -0.00774103841575208
7        115.272341865028        117.223022205388              110.356854     0.00358031256246472     0.00285659597150112     -0.0081709796392859
8        116.698590041422        117.224454446583              110.356854     0.00348192116626095     0.00280873971630632    -0.00841107726632251
9        114.517756920757        113.548446241175              110.356854    -0.00342468859822637    -0.00610666917066234    -0.00790873676021818
10        117.460553482731        113.551401403886              110.356854     -0.0135713109132967    -0.00614728237436082    -0.00667466197176858
11        114.512863550773        118.421345651893              110.356854     -0.0033623864798443     -0.0110817821958984    -0.00580067720033074
12        117.455660110655        118.424300814179              110.356854     -0.0131584379164161     -0.0107744411791588    -0.00461223546612718
13        113.127311260236        113.562444587898              110.356854      0.0140864055695949    -0.00748660151958278    -0.00856305371935803
14        113.122448808114        118.404554762274              110.356854      0.0139959181573719    -0.00703312233276134    -0.00679496365472757
15        118.850968226168        113.568192293572              110.356854     -0.0287587672394616     -0.0075799418851049    -0.00643959581371941
16        118.846105771496         118.41030247058              110.356854     -0.0282732724458674    -0.00655379606559711    -0.00473208868678754
17        112.426795838139         117.19431994364              110.356854     0.00379698304501817     0.00772732090402523    -0.00750708742628123
18         112.42922905874        114.771279815063              110.356854     0.00375495798337694     0.00106383178111033    -0.00699743615497193
19        119.546621196692        114.778427112272              110.356854     0.00536550982559995    0.000995756801341702    -0.00864297198026583
20        119.544187975028         117.20146724296              110.356854     0.00518785727235933      0.0074404148285078    -0.00913777169664624
21        120.955135022624        114.824435085822              110.356854       0.114143771196524       0.136252568883905     -0.0250030498707183
22        120.952791362251        117.158288229576              110.356854       0.111985565232808     -0.0429934934831861     -0.0302595079345006
23        111.020625673161        114.814458829493              110.356854    -0.00684197197574943       0.137307486367228     0.00236967479444283
24        111.018282013145        117.148311972274              110.356854    -0.00565033238533136     -0.0385927111601786     -0.0031903618905401
25        121.586726460739        115.991997078118              110.356854     -0.0398052129286836     -0.0247125288953731     0.00686730184127342
26        110.386690574472        115.980749978664              110.356854     -0.0193324981751134     -0.0263897971536044     -0.0103569145359806
27        121.609196045824        118.185922140926              110.356854      -0.127989094884053     -0.0590128844402034      0.0343166340312469
28          121.6136022867        113.798121569695              110.356854      -0.133879414939574     -0.0543952723455401      0.0220646759703947
29        110.359814750727        118.174625487296              110.356854    -0.00310729497163356     -0.0672531269582471    -0.00395971063140638
30         110.36422099026         113.78682491673              110.356854   -0.000271128220294126     -0.0539049202912458     -0.0172547959991253
31        112.599866822243        112.615454800093              110.356854     -0.0287906797508697      0.0133128442897053     0.00321044216926148
32        112.593103500599        119.350483321209              110.356854     -0.0282855529933744      0.0257468488267178    -0.00347430892628148
33        119.380313532952        112.622263734631              110.356854      0.0679966691468656      0.0139299980565635    -0.00353741184947138
34        119.373550207142        119.357292260389              110.356854      0.0659775259069481      0.0238550470787309    -0.00994417777996492
35        114.962286572867         112.56896056388              110.356854      0.0123374715190488     0.00769118676041036    -0.00065503702079669
36        114.955425108682        119.401722146141              110.356854      0.0120974517878171      0.0179114658307628    -0.00510126014821859
37        117.017991924022        112.571024909739              110.356854      0.0124135475754916      0.0077954715324674    -0.00189730922243029
38        117.011130457531        119.403786490585              110.356854      0.0116689927746443      0.0175160852528249    -0.00626858171710067
39                     100                     100              105.656854       0.212152024704676       0.213869182484124      -0.975584146553797
40                     100                     100              102.828427       0.432020767976007       0.430579851961073   -0.000402284901068756
41                     100                     100                     100       0.212156623777043       0.213298395718979         0.9762899528331
42                     102                     102              105.656854      -0.344460071488954      -0.347324523639896      -0.278140934296363
43                     102                     102              102.828427     -0.0509002193176547     -0.0486261402933758    0.000689899443668294
44                     102                     102                     100      -0.344530758950618      -0.346221935209277       0.276942343465945
45                     104                     100              105.656854      0.0958258628876906       0.959948415553349      -0.808874460509005
46                     104                     100              102.828427      -0.063853178667097       0.726857351844846   -0.000263957332813755
47                     104                     100                     100      0.0962679314745663       0.959317021707299       0.809320213152545
48                     106                     102              105.656854      -0.149270729708961      -0.514621755665181      -0.381524995514699
49                     106                     102              102.828427       0.142476461274806       0.066238629162853    0.000300846497538146
50                     106                     102                     100      -0.150399797798862      -0.513569104332796       0.381016991205602
51                     108                     100              105.656854       0.109731418847597        1.06005882838007      -0.801983641159387
52                     108                     100              102.828427      -0.111807227804176       0.639884702777383    0.000313057491231353
53                     108                     100                     100       0.110854815313773        1.06005169986519       0.801404586921611
54                     110                     102              105.656854      -0.143657923613909      -0.582006687854731      -0.373583651784791
55                     110                     102              102.828427       0.148538136807066       0.134996281993363    -0.00103827825652593
56                     110                     102                     100      -0.146022617409711      -0.582794714520194        0.37544638170801
57                     112                     100              105.656854       0.131915226564144         1.1087320942584      -0.810972910150893
58                     112                     100              102.828427      -0.135767238910567        0.58907054818002     0.00123624956685399
59                     112                     100                     100       0.133099028034481         1.1101771696653       0.808763917263614
60                     114                     102              105.656854      -0.164166055049652       -0.61980880304011       -0.36077468576703
61                     114                     102              102.828427       0.169132459116099       0.175847545766777    -0.00259938497979041
62                     114                     102                     100       -0.16556202096108      -0.623396813608277       0.365438011752034
63                     116                     100              105.656854       0.166588636721359        1.14445370833174      -0.821642250711707
64                     116                     100              102.828427      -0.170771778635584       0.551641812111457     0.00172843283606884
65                     116                     100                     100       0.166587351513757        1.14677051117154       0.818563918026802
66                     118                     102              105.656854      -0.209131889402434      -0.652006810609587      -0.347342749400607
67                     118                     102              102.828427       0.213956690695142       0.209092691382292    -0.00259716431959423
68                     118                     102                     100      -0.207731580370762      -0.655588743571796        0.35200195288486
69                     120                     100              105.656854       0.222964323812643        1.18281505788331      -0.835540470077961
70                     120                     100              102.828427      -0.228321295325014       0.512563575257186     0.00123532440204549
71                     120                     100                     100       0.221781466523061        1.18425712375871       0.833333138096236
72                     122                     102              105.656854      -0.288196610329515      -0.688176977715915      -0.330054950863963
73                     122                     102              102.828427       0.292897698422112       0.244560328556519     -0.0010371916042846
74                     122                     102                     100       -0.28583872424262      -0.688961102470164       0.331915753777025
75                     124                     100              105.656854        0.32614662570331        1.23670173199991      -0.852182038797613
76                     124                     100              102.828427      -0.322707769803403       0.459500351730817    0.000314217916562328
77                     124                     100                     100        0.32502698453316        1.23669571485109       0.851600948639707
78                     126                     102              105.656854      -0.461490556078613      -0.727420959896057       -0.33209260042236
79                     126                     102              102.828427       0.396937946836368       0.281415926083654    0.000296686610351626
80                     126                     102                     100      -0.460366776675484      -0.726374941438379       0.331592067966879
81                     128                     100              105.656854       0.708204412678082        1.34059513309602      -0.754675329919882
82                     128                     100              102.828427       -0.28081745868834       0.396237947205678   -0.000260709744022675
83                     128                     100                     100       0.707763797460742        1.33996823217107       0.755115405528613
84                     130                     102              105.656854       -1.34062532416957      -0.708498206490506      -0.755580548826222
85                     130                     102              102.828427      -0.395861652104108       0.280718172834434     0.00068418337091249
86                     130                     102                     100       -1.34055399779949      -0.707403264250267       0.754391967645772
87                     100                     104              105.656854       0.958935691875414      0.0997228510183634      -0.808166395979582
88                     100                     104              102.828427       0.727827802456199     -0.0668442415515654    -0.00107183472469252
89                     100                     104                     100       0.958456497036234      0.0984058523039768       0.810042364924468
90                     102                     106              105.656854      -0.513330794943161      -0.156262196152582       -0.38325584416331
91                     102                     106              102.828427      0.0648700403078645       0.147336704350716     0.00203442657681416
92                     102                     106                     100      -0.512342928738097       -0.15354030017705       0.379660380672829
93                     104                     104              105.656854       0.247115550038956       0.252230825447975       -0.38823255691222
94                     104                     104              102.828427      -0.180005140115129      -0.183733694056542    -0.00120730815428508
95                     104                     104                     100        0.24746761015487       0.250004103206875       0.390357112600949
96                     106                     106              105.656854      -0.233052366327998      -0.242956096428942      -0.504993419792884
97                     106                     106              102.828427       0.225568128952421       0.231858213225904     0.00205070484844334
98                     106                     106                     100      -0.234591063443651      -0.238369996162571       0.501065712214526
99                     108                     104              105.656854       0.173676359700561        0.33795104635716      -0.375259454420154
100                     108                     104              102.828427      -0.177893196201621      -0.268238635774606   -5.26361623883772e-05
101                     108                     104                     100       0.176707637395889       0.336484296970942       0.375397798997585
102                     110                     106              105.656854      -0.184140397418944      -0.292270281961621      -0.489596602015332
103                     110                     106              102.828427       0.194220797178208       0.285252632980925    -0.00141645939921096
104                     110                     106                     100      -0.192210728265661      -0.291804615410867       0.491968492382592
105                     112                     104              105.656854        0.16804040178836        0.38044322958347      -0.391562642803308
106                     112                     104              102.828427      -0.175247999054229       -0.31544352893331     0.00295485270502626
107                     112                     104                     100       0.172498903288041       0.384050490689857       0.386163410336602
108                     114                     106              105.656854      -0.190162989249249      -0.312989673295517      -0.466072665570794
109                     114                     106              102.828427       0.199075553551037       0.314981781194767    -0.00716616713332882
110                     114                     106                     100      -0.195972861830183      -0.323842108122337       0.480284929535091
111                     116                     104              105.656854       0.198197791310516       0.407811364277248      -0.407399115573233
112                     116                     104              102.828427      -0.203401656299691      -0.346271007537811     0.00484023125259447
113                     116                     104                     100       0.198188513735472       0.415137279797475       0.398442345904808
114                     118                     106              105.656854      -0.239069336296118      -0.335219738303505      -0.450185758901032
115                     118                     106              102.828427       0.241750699718268       0.337886598690175     -0.0071523995391791
116                     118                     106                     100      -0.233230208548285      -0.346035363918342       0.464367178410679
117                     120                     104              105.656854       0.259375092620638       0.437113981876028      -0.422280687109516
118                     120                     104              102.828427      -0.263746822139899      -0.373949673855817     0.00294771377652582
119                     120                     104                     100        0.25492074282618        0.44070223803164           0.41689528229
120                     122                     106              105.656854      -0.316097921116043      -0.362260469062319      -0.437828029061859
121                     122                     106              102.828427       0.317725533803142       0.357510425643325    -0.00140781386087329
122                     122                     106                     100      -0.308066676539577      -0.361774166015321       0.440184909986562
123                     124                     104              105.656854       0.367559350384415       0.463253804665758      -0.438584463742935
124                     124                     104              102.828427       -0.36177621175781        -0.3974481686639   -4.99387592472736e-05
125                     124                     104                     100       0.364544490362996       0.461791983687529       0.438716860817644
126                     126                     106              105.656854       -0.46617848088446      -0.367252346870682      -0.441898773303032
127                     126                     106              102.828427       0.400771039146338       0.360098535884499     0.00203680911334492
128                     126                     106                     100      -0.464654194208348      -0.362693800167753       0.438001606859546
129                     128                     104              105.656854       0.728053976622731       0.461724895227864      -0.330382581478354
130                     128                     104              102.828427      -0.282591761615917      -0.396420195594668    -0.00119775429560493
131                     128                     104                     100       0.727703567528272       0.459513259673116       0.332489690498553
132                     130                     106              105.656854       -1.23706024749094      -0.327520348739859      -0.854085475167122
133                     130                     106              102.828427      -0.458417482954875        0.32307712565198     0.00201940817016357
134                     130                     106                     100       -1.23804016789226      -0.324817879048546       0.850517434679277
135                     100                     108              105.656854        1.06228634100619       0.115999450665066      -0.799387389021735
136                     100                     108              102.828427       0.638886222514092      -0.116225004698448    -0.00240178841936103
137                     100                     108                     100        1.06025715320019       0.113733463901653       0.803619214232213
138                     102                     110              105.656854      -0.587640170477377      -0.153982591731157        -0.3800093554632
139                     102                     110              102.828427       0.137113114356294       0.154938486927255     0.00464298939653192
140                     102                     110                     100       -0.58315126683554      -0.149720620934583       0.371483871955311
141                     104                     108              105.656854       0.336650766564152       0.186977976892672      -0.370437696152707
142                     104                     108              102.828427      -0.266242352095555      -0.185803834027015    -0.00396129784561399
143                     104                     108                     100       0.334671251519648       0.181167049670425       0.377938670485244
144                     106                     110              105.656854      -0.291804955254608      -0.209731722948121      -0.504772229240588
145                     106                     110              102.828427       0.281936973403539       0.206247115857715     0.00734100036064771
146                     106                     110                     100      -0.288989247607838      -0.197954154502022        0.48748999460674
147                     108                     108              105.656854       0.222931656896273        0.24363560231336      -0.359764973627021
148                     108                     108              102.828427      -0.230730401226487      -0.241237181407563    -0.00281528082291473
149                     108                     108                     100       0.229488378325998       0.234855316374863       0.367039092878961
150                     110                     110              105.656854      -0.199845521974267      -0.241288564803574       -0.48326012769171
151                     110                     110              102.828427       0.224027838131272       0.239687623352087    0.000611613235027282
152                     110                     110                     100      -0.225361331594929      -0.232100070471505       0.476035137002829
153                     112                     108              105.656854       0.186102181273507       0.261459957833539      -0.392804146279265
154                     112                     108              102.828427      -0.203885453956712      -0.271567420590763     0.00654748100910223
155                     112                     108                     100       0.203851763750256       0.268327715879183       0.379167757494173
156                     114                     110              105.656854      -0.194789807527833      -0.226987741100975      -0.415965017875294
157                     114                     110              102.828427        0.21606969534161       0.253563162440749     -0.0172683301881805
158                     114                     110                     100      -0.216024967080754      -0.251675722551734       0.465706609573964
159                     116                     108              105.656854       0.220235839511225       0.267630024834563      -0.422628064265893
160                     116                     108              102.828427      -0.226098861764341      -0.289096429597473      0.0135640480426666
161                     116                     108                     100       0.220181692864089       0.288676244521398       0.391971520807388
162                     118                     110              105.656854      -0.268058013656351      -0.238081598984175      -0.398799403844477
163                     118                     110              102.828427       0.259313524518858       0.264883240181333     -0.0172090126232168
164                     118                     110                     100      -0.246656544245594      -0.262636592460028        0.44834190099714
165                     120                     108              105.656854       0.288927902583014       0.295145134704607      -0.427521837913675
166                     120                     108              102.828427      -0.284319516010621      -0.306230703770213     0.00650801678198437
167                     120                     108                     100       0.271204061913673       0.301911463294697       0.413984231977291
168                     122                     110              105.656854      -0.336701588158825      -0.274885894220253      -0.426920087028603
169                     122                     110              102.828427       0.325612543833629       0.274250959240154    0.000656480392259751
170                     122                     110                     100      -0.311408042065757      -0.265583235308415       0.419604788760861
171                     124                     108              105.656854       0.373926343943008        0.31323586422348      -0.432140809557228
172                     124                     108              102.828427      -0.366233037053419      -0.313136004117239    -0.00280735507239175
173                     124                     108                     100       0.367440533055295       0.304484378019318       0.439371425994937
174                     126                     110              105.656854      -0.443618138734081      -0.265578428348209      -0.433323995007933
175                     126                     110              102.828427       0.381700143520095       0.263972029682342     0.00730239537865163
176                     126                     110                     100      -0.446449068710469      -0.253865344918026       0.416179833873146
177                     128                     108              105.656854       0.689866076336597       0.291074423762546      -0.325746270796247
178                     128                     108              102.828427      -0.247527699201962      -0.293324515573419    -0.00393389998733733
179                     128                     108                     100       0.691834431978335       0.285304180306232       0.333187979559206
180                     130                     110              105.656854       -1.18183647930649       -0.22633186773914      -0.839973098683403
181                     130                     110              102.828427      -0.511228316922855       0.229690698833624     0.00461062780623732
182                     130                     110                     100       -1.18629229921419      -0.222098119404065       0.831512867849537
183                     100                     112              105.656854        1.11658746111041       0.137433165860404      -0.805508180320664
184                     100                     112              102.828427       0.584924773015513      -0.139435693409754    -0.00410876750092903
185                     100                     112                     100        1.11194897385923       0.135344850989877       0.812840406574343
186                     102                     114              105.656854      -0.634247186612266      -0.169514161947155      -0.372619156131638
187                     102                     114              102.828427       0.182046870553148       0.172294920642502     0.00719356645945267
188                     102                     114                     100      -0.625469587392886      -0.167296294898889       0.359017584465228
189                     104                     112              105.656854       0.393484356990213       0.183430402086152      -0.374636687615402
190                     104                     112              102.828427      -0.318923461703477      -0.183280605947405    -0.00867999230901862
191                     104                     112                     100       0.384247596519366       0.176538247625441       0.392829433138076
192                     106                     114              105.656854      -0.334268591662961      -0.204789387923666      -0.507364256173568
193                     106                     114              102.828427         0.3178510481735       0.205775394474705      0.0136599421953537
194                     106                     114                     100      -0.322889346381172      -0.198958147426364       0.470600829596704
195                     108                     112              105.656854       0.258837809838379        0.22605978208338      -0.345799645009793
196                     108                     112              102.828427      -0.264628309023575      -0.218323376523656     -0.0101589988904172
197                     108                     112                     100       0.263896945066727       0.209827102120085       0.385880904650412
198                     110                     114              105.656854      -0.191403992268516      -0.214913050299202      -0.478787038163376
199                     110                     114              102.828427       0.239970895789658       0.226155043533717     0.00388124020573226
200                     110                     114                     100      -0.245469434475878      -0.220009204130037       0.458260950816635
201                     112                     112              105.656854       0.170980583856486       0.225099829729373      -0.419128329725718