ITEM: TIMESTEP
0
ITEM: NUMBER OF ATOMS
422
ITEM: BOX BOUNDS ff ff ff
0.0000000000000000e+00 2.3200000000000000e+02
0.0000000000000000e+00 2.3200000000000000e+02
0.0000000000000000e+00 2.3200000000000000e+02
ITEM: ATOMS id xu yu zu fx fy fz
1        113.145932193839        115.983520815677              109.556854     0.00270673683744893    -0.00127301567607256     -0.0156622189069835
2        118.827484840071        115.989226241634              109.556854    -0.00536184914962531    -0.00124551826428489     -0.0152899437090653
3        117.402344993917        115.987795112765              109.556854     0.00332513631706119     0.00277791656638393     -0.0154169620560351
4        114.571072038949        115.984951942936              109.556854     0.00234524527023078     0.00282437905332444      -0.015056176133588
5        116.701075167769        114.749724850164              109.556854     0.00347266943022476     0.00432118581310875     -0.0142744438885393
6        115.274826990867        114.748292608712              109.556854     0.00397305627932935      0.0043516111504589     -0.0139786073734131
7        115.272341865028        117.223022205388              109.556854     0.00392036343579983     0.00311855485041812     -0.0144146330183067
8        116.698590041422        117.224454446583              109.556854     0.00342253104110718     0.00309002735787686      -0.014713317729761
9        114.517756920757        113.548446241175              109.556854    -0.00203785486374614    -0.00794015759450302    -0.00824533223689358
10        117.460553482731        113.551401403886              109.556854      -0.015678917677525    -0.00796352231567835    -0.00719359984106973
11        114.512863550773        118.421345651893              109.556854    -0.00197064356342555     -0.0100312478022862    -0.00610692060700781
12        117.455660110655        118.424300814179              109.556854       -0.01527161315518    -0.00971704522506762    -0.00517948637087856
13        113.127311260236        113.562444587898              109.556854      0.0117485454460087      -0.008913353591501      -0.011222452420053
14        113.122448808114        118.404554762274              109.556854      0.0116326877422021    -0.00627606170373564    -0.00948509557776078
15        118.850968226168        113.568192293572              109.556854     -0.0270423359035639    -0.00900962567297679    -0.00906902065558775
16        118.846105771496         118.41030247058              109.556854     -0.0265255575008485    -0.00574325774903803    -0.00736199968374958
17        112.426795838139         117.19431994364              109.556854     0.00395314461148498      0.0083311966648168     -0.0144148322212106
18         112.42922905874        114.771279815063              109.556854     0.00389157098139132    0.000815000197261079      -0.013917811956553
19        119.546621196692        114.778427112272              109.556854      0.0056291698269824    0.000753985606236879     -0.0154237346277632
20        119.544187975028         117.20146724296              109.556854     0.00543382098684193     0.00801487123101266     -0.0158934685348903
21        120.955135022624        114.824435085822              109.556854       0.123525232834011       0.131731921065957     -0.0310220617402661
22        120.952791362251        117.158288229576              109.556854       0.121275284966051      -0.034819511048082     -0.0357847819859465
23        111.020625673161        114.814458829493              109.556854     -0.0108986194529637       0.132887707683427    -0.00562136797866114
24        111.018282013145        117.148311972274              109.556854     -0.0096966088656944     -0.0302210896193336     -0.0105468476691423
25        121.586726460739        115.991997078118              109.556854      -0.043868129209492     -0.0256011223554411    5.23201230118471e-05
26        110.386690574472        115.980749978664              109.556854     -0.0185324869201333     -0.0272811144473574     -0.0160039904616314
27        121.609196045824        118.185922140926              109.556854      -0.137093785909234     -0.0586858865086319      0.0448337807473832
28          121.6136022867        113.798121569695              109.556854       -0.14320245876959     -0.0594750293211467      0.0333252713816689
29        110.359814750727        118.174625487296              109.556854     -0.0013490865187509     -0.0674512417605998     0.00925536302241618
30         110.36422099026         113.78682491673              109.556854     0.00165958107492203     -0.0591214672036817    -0.00342243285402117
31        112.599866822243        112.615454800093              109.556854     -0.0257468997901372      0.0163962065253418     0.00255742015197975
32        112.593103500599        119.350483321209              109.556854     -0.0252382804343331      0.0242757086179036    -0.00380670324615191
33        119.380313532952        112.622263734631              109.556854      0.0666013745287672      0.0170510657316948    -0.00386025372886464
34        119.373550207142        119.357292260389              109.556854      0.0644770188046421      0.0223130304046134    -0.00996202727041752
35        114.962286572867         112.56896056388              109.556854      0.0109275922777933     0.00964840787167986    -0.00325529280606622
36        114.955425108682        119.401722146141              109.556854      0.0106805850684109      0.0170145808580294    -0.00750389707057309
37        117.017991924022        112.571024909739              109.556854      0.0147881807561273     0.00976163891118709    -0.00436661868383527
38        117.011130457531        119.403786490585              109.556854      0.0140113663325571        0.01660411615279    -0.00849720100726796
39                     100                     100              105.656854       0.212159387705561       0.213940819824539      -0.975623700584308
40                     100                     100              102.828427       0.432019499134242        0.43049526780109   -0.000396833876380141
41                     100                     100                     100       0.212147482028482         0.2133727457511       0.976307692020994
42                     102                     102              105.656854      -0.344473007270434      -0.347482354013806      -0.278078683440612
43                     102                     102              102.828427     -0.0509066097489744     -0.0484598854179863    0.000702321961819451
44                     102                     102                     100      -0.344501277757655      -0.346349428938094       0.276893434629824
45                     104                     100              105.656854      0.0957831473899436       0.960039477731639      -0.808897140727728
46                     104                     100              102.828427     -0.0637904251954287       0.726761812331015   -0.000276472764189755
47                     104                     100                     100       0.096197567714879       0.959388885345591       0.809348437616249
48                     106                     102              105.656854      -0.149142511626587      -0.514806661710157      -0.381510020413561
49                     106                     102              102.828427       0.142311538981388      0.0664007204482419     0.00034694472903756
50                     106                     102                     100      -0.150240498044559      -0.513666536411036       0.380962431949612
51                     108                     100              105.656854       0.109592030063366        1.06007323411379      -0.801949048230288
52                     108                     100              102.828427       -0.11164170922082       0.639881437425942    0.000287439089279476
53                     108                     100                     100       0.110705347663324         1.0600408688908       0.801415280315209
54                     110                     102              105.656854      -0.143312708889399      -0.581905230453738      -0.373682912728669
55                     110                     102              102.828427       0.148183363886433       0.134879995919664    -0.00101821528529662
56                     110                     102                     100      -0.145747917324532       -0.58269207077299       0.375474794234639
57                     112                     100              105.656854       0.131753259015081        1.10852613634426        -0.8108569970054
58                     112                     100              102.828427      -0.135590506333745       0.589286877533833     0.00122397408263922
59                     112                     100                     100       0.132954276399758        1.11000577983785       0.808719679486917
60                     114                     102              105.656854      -0.163946363233747      -0.619195352293804      -0.360980008845521
61                     114                     102              102.828427       0.168921447604905       0.175304056483431    -0.00266796383021593
62                     114                     102                     100      -0.165411176928903      -0.623034787155685       0.365595258568003
63                     116                     100              105.656854       0.166588838279957        1.14410736444375       -0.82148561156394
64                     116                     100              102.828427      -0.170771973015496       0.551990737113688     0.00173087871674865
65                     116                     100                     100       0.166587490460243        1.14650844619473       0.818485168269544
66                     118                     102              105.656854      -0.209352304972257      -0.651394552345235       -0.34754798243157
67                     118                     102              102.828427       0.214168357910265       0.208550124323636    -0.00266553285936611
68                     118                     102                     100      -0.207882876729423      -0.655227254488212       0.352158987100809
69                     120                     100              105.656854       0.223126125290867        1.18260957493138      -0.835424621689407
70                     120                     100              102.828427      -0.228497882158041       0.512779451369863     0.00122300169243645
71                     120                     100                     100       0.221926131742437        1.18408606267214       0.833288972439041
72                     122                     102              105.656854      -0.288540581566596      -0.688076023578339      -0.330154110450812
73                     122                     102              102.828427       0.293251429276597       0.244444621563116    -0.00101714590538856
74                     122                     102                     100       -0.28611280133056       -0.68885895824859       0.331944124030131
75                     124                     100              105.656854       0.326285475811738        1.23671585400812      -0.852147364248338
76                     124                     100              102.828427      -0.322872722976289       0.459497268633081    0.000288683566753828
77                     124                     100                     100       0.325176016400217        1.23668484979474       0.851611522477733
78                     126                     102              105.656854      -0.461618096519438      -0.727604396760299      -0.332077852640469
79                     126                     102              102.828427        0.39710207702356       0.281576980231194    0.000342385880334862
80                     126                     102                     100      -0.460525414569499      -0.726471940705747       0.331537962801723
81                     128                     100              105.656854       0.708247000131789        1.34068544959974      -0.754697731432913
82                     128                     100              102.828427      -0.280880004539859       0.396143099769969    -0.00027313208417739
83                     128                     100                     100       0.707833927413584        1.34003966014991       0.755143388325227
84                     130                     102              105.656854       -1.34061265397019      -0.708654740837315      -0.755518768351167
85                     130                     102              102.828427      -0.395855143710813       0.280883250484126    0.000696390365880188
86                     130                     102                     100       -1.34058341829162       -0.70753002778832       0.754343515556907
87                     100                     104              105.656854       0.959026246777551      0.0999084138793233      -0.808265142169983
88                     100                     104              102.828427       0.727751494673395      -0.067042266978835    -0.00108022795160263
89                     100                     104                     100       0.958491641681884      0.0985608999742577       0.810106384506331
90                     102                     106              105.656854       -0.51357672211691      -0.156725070305073      -0.383104829770162
91                     102                     106              102.828427      0.0650289113779104       0.147751588161068     0.00213910165733865
92                     102                     106                     100      -0.512383854970719      -0.153809807107549       0.379485529386035
93                     104                     104              105.656854       0.247132054659287       0.252618010719954      -0.388316130040541
94                     104                     104              102.828427      -0.179959715323404      -0.184074139816741    -0.00129031309457856
95                     104                     104                     100       0.247376719587553       0.250218011244555       0.390478453039268
96                     106                     106              105.656854       -0.23300735864465      -0.244027195629346      -0.504990581855988
97                     106                     106              102.828427       0.225340786275956       0.232554973976025     0.00237425008928102
98                     106                     106                     100      -0.234320634805451      -0.238695244193772       0.500799902875671
99                     108                     104              105.656854       0.173240985817506       0.338304441662391      -0.375214173002471
100                     108                     104              102.828427      -0.177438904243306      -0.268465450387782   -0.000164731517830035
101                     108                     104                     100        0.17635083567926       0.336572740127825       0.375470928639202
102                     110                     106              105.656854      -0.182535488656493      -0.292589558804223      -0.489791239988935
103                     110                     106              102.828427       0.193006443452418       0.285322819624542    -0.00131920499175365
104                     110                     106                     100      -0.191479604357562      -0.291745269853851       0.491997348271136
105                     112                     104              105.656854       0.167243308359729       0.379747148056278      -0.391374598196293
106                     112                     104              102.828427      -0.174572490029852      -0.314900126189067     0.00308320369711226
107                     112                     104                     100       0.172065250369991       0.383714271508142       0.385967924965988
108                     114                     106              105.656854      -0.188875555468758      -0.310067192348473      -0.465968265732304
109                     114                     106              102.828427        0.19820010007076       0.313392369708483    -0.00798270545048868
110                     114                     106                     100      -0.195511320915813      -0.323096612808864       0.480931879932609
111                     116                     104              105.656854       0.198199687982313       0.406274909015778      -0.407160248788325
112                     116                     104              102.828427      -0.203403060689662      -0.345163197080493      0.0051761358790385
113                     116                     104                     100       0.198189310208131        0.41452310299072       0.398057499037242
114                     118                     106              105.656854      -0.240363766958414      -0.332308633735872      -0.450083345213942
115                     118                     106              102.828427       0.242630487830757       0.336302476989839    -0.00796616993907688
116                     118                     106                     100      -0.233694036247676      -0.345292016878816       0.465012580779194
117                     120                     104              105.656854        0.26017095016113        0.43642211227666      -0.422092678319043
118                     120                     104              102.828427       -0.26442169246698      -0.373409128917604     0.00307522811849506
119                     120                     104                     100       0.255354246112225        0.44036756064246       0.416700496571673
120                     122                     106              105.656854       -0.31769181529885      -0.362582882826596      -0.438021984051638
121                     122                     106              102.828427       0.318934101199462        0.35758375771462    -0.00131028742272634
122                     122                     106                     100      -0.308795489905238      -0.361716981809042       0.440213057068039
123                     124                     104              105.656854        0.36799172524021       0.463604976009404      -0.438539502809303
124                     124                     104              102.828427      -0.362227995444152      -0.397674235846602   -0.000161167892563846
125                     124                     104                     100       0.364899775951011       0.461880578995713       0.438789503390051
126                     126                     106              105.656854      -0.466222519227807      -0.368313812162048      -0.441894420758989
127                     126                     106              102.828427       0.400996111015554       0.360791244932266     0.00235691063412807
128                     126                     106                     100       -0.46492271408175      -0.363018210943197       0.437737716001244
129                     128                     104              105.656854        0.72803779804098       0.462108708865432       -0.33046573173761
130                     128                     104              102.828427       -0.28263696070012      -0.396758306402861    -0.00127973630686016
131                     128                     104                     100       0.727793946525812       0.459726138679205       0.332609976617029
132                     130                     106              105.656854       -1.23681680036721       -0.32797895681146        -0.8539351376626
133                     130                     106              102.828427      -0.458575100320618       0.323489008886237     0.00212252248132252
134                     130                     106                     100       -1.23799939600088      -0.325086009712458       0.850344210911921
135                     100                     108              105.656854        1.06267467040712       0.116362112555436        -0.7995826647635
136                     100                     108              102.828427       0.638570342362938      -0.116569130742312    -0.00248442531228104
137                     100                     108                     100        1.06042160022906       0.113971542422811       0.803799503881195
138                     102                     110              105.656854      -0.588787424334904      -0.154843315569158       -0.37980080913595
139                     102                     110              102.828427       0.137805175463555       0.155587547275027     0.00506593885848877
140                     102                     110                     100      -0.583398154239882      -0.150081034944383       0.371026601563092
141                     104                     108              105.656854       0.337418720265325       0.188295404011639      -0.370509671133878
142                     104                     108              102.828427      -0.266546911412835      -0.186683937766407    -0.00444975978904265
143                     104                     108                     100       0.334659999891925       0.181603648700593       0.378374610890952
144                     106                     110              105.656854      -0.294378139867705      -0.213843383710264      -0.506306278292805
145                     106                     110              102.828427       0.282245296958473       0.207919234118779     0.00914840858195949
146                     106                     110                     100      -0.288686055743305      -0.198527657390506       0.486570287805079
147                     108                     108              105.656854       0.222113723227895       0.246868088095791      -0.358874135722999
148                     108                     108              102.828427      -0.229712496197924      -0.242467412109115    -0.00378020839221306
149                     108                     108                     100       0.228752660204841       0.235221933125822       0.367479324511575
150                     110                     110              105.656854       -0.19124299766523      -0.247187944048912      -0.486922676303129
151                     110                     110              102.828427       0.220466285452554       0.240810216631276     0.00215770340517943
152                     110                     110                     100      -0.223752836858051      -0.232211834581984       0.475791904587782
153                     112                     108              105.656854       0.181088431252039       0.259279057422887      -0.393446402639202
154                     112                     108              102.828427      -0.201290306547677       -0.27056806463883     0.00737238514371449
155                     112                     108                     100       0.202671112873357       0.267851301011003        0.37859839785408
156                     114                     110              105.656854      -0.187430037358784      -0.212223914042636      -0.402510256444244
157                     114                     110              102.828427       0.213092122330041        0.25072745193602     -0.0213306041562481
158                     114                     110                     100      -0.214892765385242      -0.250691404007767       0.467515114411819
159                     116                     108              105.656854       0.220252245261397       0.260066082257508      -0.424996119234307
160                     116                     108              102.828427       -0.22610674438553      -0.286123256487179      0.0161131343108747
161                     116                     108                     100       0.220184967766391       0.287569555270769       0.390592194700474
162                     118                     110              105.656854      -0.275494196234625      -0.223388179869742      -0.385411342729951
163                     118                     110              102.828427       0.262312508069094       0.262063858074881     -0.0212518366299414
164                     118                     110                     100      -0.247796844297963      -0.261657344475624       0.450143451556316
165                     120                     108              105.656854       0.293928479134076       0.293002752604251      -0.428150046926166
166                     120                     108              102.828427      -0.286911319376822      -0.305245623789547      0.0073232105623661
167                     120                     108                     100       0.272384528411231       0.301440240319607       0.413419282296265
168                     122                     110              105.656854      -0.345176039557373      -0.280820534327342      -0.430583976895047
169                     122                     110              102.828427       0.329147226729094       0.275389048041204      0.0022076381072241
170                     122                     110                     100      -0.313009784005439      -0.265701563431548        0.41935653900419
171                     124                     108              105.656854       0.374728056626315       0.316442534952879      -0.431264894374014
172                     124                     108              102.828427      -0.367240074425584      -0.314363668653207    -0.00376503755534517
173                     124                     108                     100       0.368171346884651       0.304852366791159       0.439810180506563
174                     126                     110              105.656854      -0.441066406606161      -0.269647233957414       -0.43482301524293
175                     126                     110              102.828427       0.381387330794899       0.265636711838819     0.00909095051501109
176                     126                     110                     100      -0.446747363008288      -0.254438998378136       0.415265407434733
177                     128                     108              105.656854       0.689105930775707       0.292378320743758      -0.325820847558353
178                     128                     108              102.828427      -0.247224578253267      -0.294198650201274     -0.0044162317897859
179                     128                     108                     100        0.69184473223741        0.28573921238757       0.333620355413667
180                     130                     110              105.656854       -1.18070136919908      -0.227184339735351      -0.839763494065386
181                     130                     110              102.828427      -0.511915477746431       0.230335495170723      0.0050277177836906
182                     130                     110                     100       -1.18604604411958      -0.222457235483219       0.831059642361991
183                     100                     112              105.656854        1.11753604805806       0.137797109173708      -0.805792991533004
184                     100                     112              102.828427       0.584207611384037      -0.139754023463268    -0.00434089713204131
185                     100                     112                     100         1.1123084572296       0.135547430898844       0.813190106690585
186                     102                     114              105.656854      -0.636622265095978      -0.169984706435715      -0.372460466990901
187                     102                     114              102.828427       0.183380609484981       0.172632696663743       0.008019804330972
188                     102                     114                     100      -0.625942899801097      -0.167473458977454       0.358267667032727
189                     104                     112              105.656854       0.397123168626867       0.185330814498396       -0.37400091805061
190                     104                     112              102.828427      -0.320236566834172       -0.18429881697302     -0.0102285985865028
191                     104                     112                     100       0.384467467273384       0.176970659865502       0.393834235240307
192                     106                     114              105.656854      -0.342738853004656      -0.206609833541023      -0.513222574847719
193                     106                     114              102.828427        0.31914032337199       0.206633498244653      0.0177697289709148
194                     106                     114                     100      -0.322629232803065      -0.199252056644201         0.4689132724866
195                     108                     112              105.656854       0.265084805932328       0.236608763662148      -0.329977096509696
196                     108                     112              102.828427      -0.263222392896822      -0.220167568325066      -0.014639679622767
197                     108                     112                     100       0.262725420563391       0.210267681182799       0.387205668359577
198                     110                     114              105.656854      -0.163131555873052      -0.205083267975499      -0.500263743160225
199                     110                     114              102.828427       0.233475818601987       0.226219679422348     0.00796110552856952
200                     110                     114                     100      -0.243004524507692      -0.220044468455586       0.457656377912136
201                     112                     112              105.656854       0.145174977768581       0.225891114789613      -0.420462226839333