ITEM: TIMESTEP
0
ITEM: NUMBER OF ATOMS
422
ITEM: BOX BOUNDS pp pp pp
0.0000000000000000e+00 3.2000000000000000e+01
0.0000000000000000e+00 3.2000000000000000e+01
0.0000000000000000e+00 3.2000000000000000e+01
ITEM: ATOMS id xu yu zu fx fy fz
1        13.1323083863814        15.9698970082201        8.64322619254279      -0.481865879297034       0.459864947881941     -0.0269173526162157
2        18.7868651569335        15.9486065584968        8.61623031686242        7.54128012344225        7.31169333542712        1.54101170314785
3        17.4510236937305        16.0364738125784        8.70552869981349       -8.35885594283105       -8.33153438347006        -1.7702258396462
4        14.5262229358396        15.9401028398264        8.61200089689059        2.32477377227997        2.41277110331846       0.327854661739914
5         16.653051670312        14.7017013527065        8.60882650254276        3.38662792621818        4.44990886356594       0.977755489882035
6        15.2300462626953        14.7035118805398        8.61206927182788        2.10253146306989        2.32830381801962       0.127545783863459
7        15.2551949067839         17.205875247144        8.63970304175631        1.02886875453647       0.261290243621703       0.208883472686898
8        16.6948945710649        17.2207589762259        8.65315452964335       0.313176541258381      -0.559006884928267       0.176005102135893
9        14.5294097698637        13.5600990902815        8.66850284910636       -2.59056494190205       -3.77560005354149      -0.527473966386325
10        17.4200640523643         13.510911973519          8.616360569633        4.11867126544084        2.86091895992935       0.559384634032598
11        14.5467399606831        18.4552220618033        8.69072640991023       -5.13772351296053       -4.41115575299115       -1.01727236275558
12          17.41953953711        18.3881802406337         8.6207294264548        3.02063374045299        2.27346236364642        0.33913010315999
13        13.1342967465497        13.5694300742116        8.66383548631398       -0.24883592521977      -0.400969193462247       0.123225722765027
14        13.0797590570564         18.361865011217         8.6141602489427        4.56342155897653        4.01296469770283       0.917827450008025
15        18.8887060029732        13.6059300703772        8.69458777680515       -4.24842381140605       -3.50951056499131      -0.736244569129965
16        18.8652689731687        18.4294656722529        8.67601320167241       -1.32891746055402       0.388498551855949     -0.0365876463729945
17        12.4068799620758        17.1744040675768        8.63693412393684        1.19246244500782       0.666509627135762       0.156669052896751
18        12.4440303944561          14.78608115078        8.67165133571656       -2.53023058545133       -2.27385082728516       -0.29430532058052
19        19.5581164903376        14.7899224059174        8.66834529364532       -2.11936053994608       -1.68056900756473       -0.57606253713324
20        19.5790450223127         17.236324290244        8.69170704728442       -3.43629071776536        -4.2720283223347       -1.03425128963209
21        20.9390773506112        14.8083774138095        8.64079232798714         4.0877280583383        5.11643719052456       0.920473741147349
22         20.970251299162        17.1757481664871        8.67430993691128        1.21239644674035        1.11382955440261       0.387279082453551
23        11.0088852311978        14.8027183875293        8.64510955803676      -0.857368186850966       -1.62087814416543       0.022185715734442
24        11.0397068289184        17.1697367880466        8.67827481577298       -3.37324233562562       -3.75887196101391      -0.609524106638021
25        21.6103455848544        16.0156162022326        8.68046912411493       -2.67103113052018       -2.59606205695852      -0.641867933821268
26        10.3844268714163        15.9784862756091        8.65458629694465       0.850859963132216        1.14275558819822       0.221062202740809
27        21.6307088747717         18.207434969874        8.67836282894768      -0.190168043091357      -0.354252807194848     0.00337400539947529
28        21.6340864195872        13.8186057025818        8.67733413288706       -0.81991901993695       -1.43385809869441      -0.185735912071803
29         10.358857429958        18.1736681665269        8.65589267923058       0.594217091242365        1.00007571696342       0.169821657100098
30         10.317738518921        13.7403424453903        8.61036752866053        2.17127730074299        2.69324136456432       0.142814572000233
31        12.5864273395787        12.6020153174294         8.6434105173361       0.443740534987569       0.739714787584961       0.065112337344825
32        12.6188076597963        19.3761874804063        8.68255415919706       -0.51819973544719       -1.29843683766029      -0.301475254372175
33        19.3723693474603        12.6143195491397        8.64890581450839       0.440917176067334       0.882336424956888       0.277287515216965
34        19.4109518986634          19.39469395191        8.69425169152101       -0.68182270921237      -0.522024115091899     -0.0449896085217529
35        14.9152145908083         12.521888581821        8.60977801794145       0.430856468799376        1.12771976846135       0.199633788693532
36        14.9626409754743        19.4089380129332        8.66406586679235       0.283898085515892       0.984900601696942       0.196816585819528
37        17.0201818442072         12.573214829925        8.65903992018572      -0.802443070969316       -1.60928025512341      -0.155778785394732
38         16.961421321869        19.3540773549225        8.60714086433795       0.286924832737522       0.180691757013425      -0.102441894896357
39                       0                       0                5.656854                       0                       0                       0
40                       0                       0                2.828427                       0                       0                       0
41                       0                       0                       0                       0                       0                       0
42                       2                       2                5.656854                       0                       0                       0
43                       2                       2                2.828427                       0                       0                       0
44                       2                       2                       0                       0                       0                       0
45                       4                       0                5.656854                       0                       0                       0
46                       4                       0                2.828427                       0                       0                       0
47                       4                       0                       0                       0                       0                       0
48                       6                       2                5.656854                       0                       0                       0
49                       6                       2                2.828427                       0                       0                       0
50                       6                       2                       0                       0                       0                       0
51                       8                       0                5.656854                       0                       0                       0
52                       8                       0                2.828427                       0                       0                       0
53                       8                       0                       0                       0                       0                       0
54                      10                       2                5.656854                       0                       0                       0
55                      10                       2                2.828427                       0                       0                       0
56                      10                       2                       0                       0                       0                       0
57                      12                       0                5.656854                       0                       0                       0
58                      12                       0                2.828427                       0                       0                       0
59                      12                       0                       0                       0                       0                       0
60                      14                       2                5.656854                       0                       0                       0
61                      14                       2                2.828427                       0                       0                       0
62                      14                       2                       0                       0                       0                       0
63                      16                       0                5.656854                       0                       0                       0
64                      16                       0                2.828427                       0                       0                       0
65                      16                       0                       0                       0                       0                       0
66                      18                       2                5.656854                       0                       0                       0
67                      18                       2                2.828427                       0                       0                       0
68                      18                       2                       0                       0                       0                       0
69                      20                       0                5.656854                       0                       0                       0
70                      20                       0                2.828427                       0                       0                       0
71                      20                       0                       0                       0                       0                       0
72                      22                       2                5.656854                       0                       0                       0
73                      22                       2                2.828427                       0                       0                       0
74                      22                       2                       0                       0                       0                       0
75                      24                       0                5.656854                       0                       0                       0
76                      24                       0                2.828427                       0                       0                       0
77                      24                       0                       0                       0                       0                       0
78                      26                       2                5.656854                       0                       0                       0
79                      26                       2                2.828427                       0                       0                       0
80                      26                       2                       0                       0                       0                       0
81                      28                       0                5.656854                       0                       0                       0
82                      28                       0                2.828427                       0                       0                       0
83                      28                       0                       0                       0                       0                       0
84                      30                       2                5.656854                       0                       0                       0
85                      30                       2                2.828427                       0                       0                       0
86                      30                       2                       0                       0                       0                       0
87                       0                       4                5.656854                       0                       0                       0
88                       0                       4                2.828427                       0                       0                       0
89                       0                       4                       0                       0                       0                       0
90                       2                       6                5.656854                       0                       0                       0
91                       2                       6                2.828427                       0                       0                       0
92                       2                       6                       0                       0                       0                       0
93                       4                       4                5.656854                       0                       0                       0
94                       4                       4                2.828427                       0                       0                       0
95                       4                       4                       0                       0                       0                       0
96                       6                       6                5.656854                       0                       0                       0
97                       6                       6                2.828427                       0                       0                       0
98                       6                       6                       0                       0                       0                       0
99                       8                       4                5.656854                       0                       0                       0
100                       8                       4                2.828427                       0                       0                       0
101                       8                       4                       0                       0                       0                       0
102                      10                       6                5.656854                       0                       0                       0
103                      10                       6                2.828427                       0                       0                       0
104                      10                       6                       0                       0                       0                       0
105                      12                       4                5.656854                       0                       0                       0
106                      12                       4                2.828427                       0                       0                       0
107                      12                       4                       0                       0                       0                       0
108                      14                       6                5.656854                       0                       0                       0
109                      14                       6                2.828427                       0                       0                       0
110                      14                       6                       0                       0                       0                       0
111                      16                       4                5.656854                       0                       0                       0
112                      16                       4                2.828427                       0                       0                       0
113                      16                       4                       0                       0                       0                       0
114                      18                       6                5.656854                       0                       0                       0
115                      18                       6                2.828427                       0                       0                       0
116                      18                       6                       0                       0                       0                       0
117                      20                       4                5.656854                       0                       0                       0
118                      20                       4                2.828427                       0                       0                       0
119                      20                       4                       0                       0                       0                       0
120                      22                       6                5.656854                       0                       0                       0
121                      22                       6                2.828427                       0                       0                       0
122                      22                       6                       0                       0                       0                       0
123                      24                       4                5.656854                       0                       0                       0
124                      24                       4                2.828427                       0                       0                       0
125                      24                       4                       0                       0                       0                       0
126                      26                       6                5.656854                       0                       0                       0
127                      26                       6                2.828427                       0                       0                       0
128                      26                       6                       0                       0                       0                       0
129                      28                       4                5.656854                       0                       0                       0
130                      28                       4                2.828427                       0                       0                       0
131                      28                       4                       0                       0                       0                       0
132                      30                       6                5.656854                       0                       0                       0
133                      30                       6                2.828427                       0                       0                       0
134                      30                       6                       0                       0                       0                       0
135                       0                       8                5.656854                       0                       0                       0
136                       0                       8                2.828427                       0                       0                       0
137                       0                       8                       0                       0                       0                       0
138                       2                      10                5.656854                       0                       0                       0
139                       2                      10                2.828427                       0                       0                       0
140                       2                      10                       0                       0                       0                       0
141                       4                       8                5.656854                       0                       0                       0
142                       4                       8                2.828427                       0                       0                       0
143                       4                       8                       0                       0                       0                       0
144                       6                      10                5.656854                       0                       0                       0
145                       6                      10                2.828427                       0                       0                       0
146                       6                      10                       0                       0                       0                       0
147                       8                       8                5.656854                       0                       0                       0
148                       8                       8                2.828427                       0                       0                       0
149                       8                       8                       0                       0                       0                       0
150                      10                      10                5.656854                       0                       0                       0
151                      10                      10                2.828427                       0                       0                       0
152                      10                      10                       0                       0                       0                       0
153                      12                       8                5.656854                       0                       0                       0
154                      12                       8                2.828427                       0                       0                       0
155                      12                       8                       0                       0                       0                       0
156                      14                      10                5.656854                       0                       0                       0
157                      14                      10                2.828427                       0                       0                       0
158                      14                      10                       0                       0                       0                       0
159                      16                       8                5.656854                       0                       0                       0
160                      16                       8                2.828427                       0                       0                       0
161                      16                       8                       0                       0                       0                       0
162                      18                      10                5.656854                       0                       0                       0
163                      18                      10                2.828427                       0                       0                       0
164                      18                      10                       0                       0                       0                       0
165                      20                       8                5.656854                       0                       0                       0
166                      20                       8                2.828427                       0                       0                       0
167                      20                       8                       0                       0                       0                       0
168                      22                      10                5.656854                       0                       0                       0
169                      22                      10                2.828427                       0                       0                       0
170                      22                      10                       0                       0                       0                       0
171                      24                       8                5.656854                       0                       0                       0
172                      24                       8                2.828427                       0                       0                       0
173                      24                       8                       0                       0                       0                       0
174                      26                      10                5.656854                       0                       0                       0
175                      26                      10                2.828427                       0                       0                       0
176                      26                      10                       0                       0                       0                       0
177                      28                       8                5.656854                       0                       0                       0
178                      28                       8                2.828427                       0                       0                       0
179                      28                       8                       0                       0                       0                       0
180                      30                      10                5.656854                       0                       0                       0
181                      30                      10                2.828427                       0                       0                       0
182                      30                      10                       0                       0                       0                       0
183                       0                      12                5.656854                       0                       0                       0
184                       0                      12                2.828427                       0                       0                       0
185                       0                      12                       0                       0                       0                       0
186                       2                      14                5.656854                       0                       0                       0
187                       2                      14                2.828427                       0                       0                       0
188                       2                      14                       0                       0                       0                       0
189                       4                      12                5.656854                       0                       0                       0
190                       4                      12                2.828427                       0                       0                       0
191                       4                      12                       0                       0                       0                       0
192                       6                      14                5.656854                       0                       0                       0
193                       6                      14                2.828427                       0                       0                       0
194                       6                      14                       0                       0                       0                       0
195                       8                      12                5.656854                       0                       0                       0
196                       8                      12                2.828427                       0                       0                       0
197                       8                      12                       0                       0                       0                       0
198                      10                      14                5.656854                       0                       0                       0
199                      10                      14                2.828427                       0                       0                       0
200                      10                      14                       0                       0                       0                       0
201                      12                      12                5.656854                       0                       0                       0