ITEM: TIMESTEP
0
ITEM: NUMBER OF ATOMS
422
ITEM: BOX BOUNDS ff ff ff
0.0000000000000000e+00 2.3200000000000000e+02
0.0000000000000000e+00 2.3200000000000000e+02
0.0000000000000000e+00 2.3200000000000000e+02
ITEM: ATOMS id xu yu zu fx fy fz
1        113.129572388971         115.96716101081        108.640494195133     0.00100137847093366   -0.000517838083319399      0.0116177889944509
2        118.847692018458        116.009433420022        108.677061178387    -0.00156549919385091   -0.000434513182345463     -0.0655790641644112
3          117.4217534889        116.007203607748        108.676262494983    0.000201500150974093    2.71780745987414e-05    -0.00246253538584091
4        114.547996963362        115.961876867349        108.633778924413   -0.000222251101076534    0.000260741973479774     -0.0236428940090618
5        116.694695769422        114.743345451817        108.650474601653    -0.00127193834863547    0.000155093708742573     -0.0388519110407961
6        115.242095182314        114.715560800159        108.624122191447   -0.000160977297198891   -0.000165274061525807    -0.00333162920530346
7        115.247361405334        117.198041745694        108.631873540307     0.00224219699498874    -0.00192918881018912      0.0706979274551147
8        116.702288519477        117.228152924638        108.660552478055   -0.000359604351124857    0.000155650335204465      0.0117835303406828
9        114.484301567998        113.514990888416        108.623398647241     0.00362405792353034     0.00307664406059713         0.1074796207441
10        117.420657219721        113.511505140876         108.61695773699     0.00270061362115402     0.00362221741120103      0.0902430942046876
11        114.560070645775        118.468552746896        108.704061095003    -0.00184318485903619    -0.00237044286478099      -0.157273577723378
12          117.4981941528        118.466834856323        108.699388042144    0.000725541117539859    0.000158384917751749     -0.0134203887130947
13        113.170232206854        113.605365534515        108.699774946618    -0.00175950651716369    -0.00170187410752568      -0.149959530094853
14        113.092929683352        118.375035637513        108.627334875239    0.000740463009146882   -2.23236980062894e-06            0.1503816335
15        118.845130478339        113.562354545743        108.651016252171    0.000293556735012242   -0.000703279626059684     -0.0293101849001794
16        118.892501285422        118.456697984506        108.703249513926    -0.00444136252140362   -0.000290900608599804      -0.092774810285648
17         112.46172601597        117.229250121471        108.691784177831     -0.0029019232360493    -0.00160442932622833     -0.0933197311382755
18        112.401916925606         114.74396768193        108.629541866867     0.00738727304896921    -0.00221580934798604       0.266160939003253
19        119.524531170879        114.756337086459        108.634763974187    0.000276773624830047   -0.000717433067944588      0.0586392003618525
20        119.518797461789         117.17607672972        108.631463486761    -0.00346032650369979     0.00426435733983634       0.259935879047025
21        120.957091109952        114.826391173151        108.658810087328    0.000829922430741102    0.000694342418562664     -0.0630493698475895
22        120.982188870443        117.187685737768        108.686251508192    0.000612615951041943     -0.0176080936551736      -0.555916617862493
23        111.052905800528        114.846738956859        108.689134127367    -0.00451880576774272      0.0158269714497946      -0.543238325937938
24        111.049562102059        117.179592061187        108.688134088914    -5.9728560026552e-05    0.000110822983626458      0.0229061933720475
25          121.6054526134        116.010723230779        108.675580152661     0.00254911955202671   -0.000230168736122784       0.187336515049513
26        110.413461548589        116.007520952782        108.683624974118    -0.00150613402709955    1.65911649022226e-05        0.17509843092906
27        121.570681796242        118.147407891344        108.618339750418     0.00331087178212735      0.0127622764482233       0.209045745903833
28        121.607640206354        113.792159489349        108.650891919654   -0.000202237781970962   -0.000271599090513489       0.018859259430241
29        110.393760710964        118.208571447533        108.690799960237     4.3927854572031e-06    9.29699850851113e-06    -0.00250785735579227
30        110.315843078511        113.738447004981        108.608476088251    -0.00230390312849921     -0.0107226767101748       0.168389630599643
31         112.56256352215        112.578151500001        108.619550699908    -0.00104933447173826    -0.00208695380709975      0.0346702655661922
32         112.63957902527         119.39695884588         108.70332952467    -0.00157241407383021      0.0021510196423365     -0.0383057474581953
33        119.423148248396        112.665098450075        108.699688715444    6.05247846385685e-05   -7.27313314524721e-05    -0.00205954301058358
34        119.349716259205        119.333458312451        108.633020052062     0.00231427200434963     0.00156461936155172      0.0345996670609285
35        114.993270932731        112.599944923744        108.687838359864   -8.50357751311246e-05     -0.0021888393213888     -0.0304099429394267
36        114.921948678903        119.368245716362        108.623377570221     0.00265394924504091     0.00363395121263106      0.0524251549699137
37        117.064363369033        112.617396354751        108.703225445011    -0.00186266549548475    -0.00290057224294566     -0.0377555340674805
38        117.021569912043        119.414225945097        108.667293454512   -0.000382190221739909    0.000244690849628055      0.0128987186078003
39                     100                     100              105.656854                       0                       0                       0
40                     100                     100              102.828427                       0                       0                       0
41                     100                     100                     100                       0                       0                       0
42                     102                     102              105.656854                       0                       0                       0
43                     102                     102              102.828427                       0                       0                       0
44                     102                     102                     100                       0                       0                       0
45                     104                     100              105.656854                       0                       0                       0
46                     104                     100              102.828427                       0                       0                       0
47                     104                     100                     100                       0                       0                       0
48                     106                     102              105.656854                       0                       0                       0
49                     106                     102              102.828427                       0                       0                       0
50                     106                     102                     100                       0                       0                       0
51                     108                     100              105.656854                       0                       0                       0
52                     108                     100              102.828427                       0                       0                       0
53                     108                     100                     100                       0                       0                       0
54                     110                     102              105.656854                       0                       0                       0
55                     110                     102              102.828427                       0                       0                       0
56                     110                     102                     100                       0                       0                       0
57                     112                     100              105.656854                       0                       0                       0
58                     112                     100              102.828427                       0                       0                       0
59                     112                     100                     100                       0                       0                       0
60                     114                     102              105.656854                       0                       0                       0
61                     114                     102              102.828427                       0                       0                       0
62                     114                     102                     100                       0                       0                       0
63                     116                     100              105.656854                       0                       0                       0
64                     116                     100              102.828427                       0                       0                       0
65                     116                     100                     100                       0                       0                       0
66                     118                     102              105.656854                       0                       0                       0
67                     118                     102              102.828427                       0                       0                       0
68                     118                     102                     100                       0                       0                       0
69                     120                     100              105.656854                       0                       0                       0
70                     120                     100              102.828427                       0                       0                       0
71                     120                     100                     100                       0                       0                       0
72                     122                     102              105.656854                       0                       0                       0
73                     122                     102              102.828427                       0                       0                       0
74                     122                     102                     100                       0                       0                       0
75                     124                     100              105.656854                       0                       0                       0
76                     124                     100              102.828427                       0                       0                       0
77                     124                     100                     100                       0                       0                       0
78                     126                     102              105.656854                       0                       0                       0
79                     126                     102              102.828427                       0                       0                       0
80                     126                     102                     100                       0                       0                       0
81                     128                     100              105.656854                       0                       0                       0
82                     128                     100              102.828427                       0                       0                       0
83                     128                     100                     100                       0                       0                       0
84                     130                     102              105.656854                       0                       0                       0
85                     130                     102              102.828427                       0                       0                       0
86                     130                     102                     100                       0                       0                       0
87                     100                     104              105.656854                       0                       0                       0
88                     100                     104              102.828427                       0                       0                       0
89                     100                     104                     100                       0                       0                       0
90                     102                     106              105.656854                       0                       0                       0
91                     102                     106              102.828427                       0                       0                       0
92                     102                     106                     100                       0                       0                       0
93                     104                     104              105.656854                       0                       0                       0
94                     104                     104              102.828427                       0                       0                       0
95                     104                     104                     100                       0                       0                       0
96                     106                     106              105.656854                       0                       0                       0
97                     106                     106              102.828427                       0                       0                       0
98                     106                     106                     100                       0                       0                       0
99                     108                     104              105.656854                       0                       0                       0
100                     108                     104              102.828427                       0                       0                       0
101                     108                     104                     100                       0                       0                       0
102                     110                     106              105.656854                       0                       0                       0
103                     110                     106              102.828427                       0                       0                       0
104                     110                     106                     100                       0                       0                       0
105                     112                     104              105.656854                       0                       0                       0
106                     112                     104              102.828427                       0                       0                       0
107                     112                     104                     100                       0                       0                       0
108                     114                     106              105.656854                       0                       0                       0
109                     114                     106              102.828427                       0                       0                       0
110                     114                     106                     100                       0                       0                       0
111                     116                     104              105.656854                       0                       0                       0
112                     116                     104              102.828427                       0                       0                       0
113                     116                     104                     100                       0                       0                       0
114                     118                     106              105.656854                       0                       0                       0
115                     118                     106              102.828427                       0                       0                       0
116                     118                     106                     100                       0                       0                       0
117                     120                     104              105.656854                       0                       0                       0
118                     120                     104              102.828427                       0                       0                       0
119                     120                     104                     100                       0                       0                       0
120                     122                     106              105.656854                       0                       0                       0
121                     122                     106              102.828427                       0                       0                       0
122                     122                     106                     100                       0                       0                       0
123                     124                     104              105.656854                       0                       0                       0
124                     124                     104              102.828427                       0                       0                       0
125                     124                     104                     100                       0                       0                       0
126                     126                     106              105.656854                       0                       0                       0
127                     126                     106              102.828427                       0                       0                       0
128                     126                     106                     100                       0                       0                       0
129                     128                     104              105.656854                       0                       0                       0
130                     128                     104              102.828427                       0                       0                       0
131                     128                     104                     100                       0                       0                       0
132                     130                     106              105.656854                       0                       0                       0
133                     130                     106              102.828427                       0                       0                       0
134                     130                     106                     100                       0                       0                       0
135                     100                     108              105.656854                       0                       0                       0
136                     100                     108              102.828427                       0                       0                       0
137                     100                     108                     100                       0                       0                       0
138                     102                     110              105.656854                       0                       0                       0
139                     102                     110              102.828427                       0                       0                       0
140                     102                     110                     100                       0                       0                       0
141                     104                     108              105.656854                       0                       0                       0
142                     104                     108              102.828427                       0                       0                       0
143                     104                     108                     100                       0                       0                       0
144                     106                     110              105.656854                       0                       0                       0
145                     106                     110              102.828427                       0                       0                       0
146                     106                     110                     100                       0                       0                       0
147                     108                     108              105.656854                       0                       0                       0
148                     108                     108              102.828427                       0                       0                       0
149                     108                     108                     100                       0                       0                       0
150                     110                     110              105.656854                       0                       0                       0
151                     110                     110              102.828427                       0                       0                       0
152                     110                     110                     100                       0                       0                       0
153                     112                     108              105.656854                       0                       0                       0
154                     112                     108              102.828427                       0                       0                       0
155                     112                     108                     100                       0                       0                       0
156                     114                     110              105.656854                       0                       0                       0
157                     114                     110              102.828427                       0                       0                       0
158                     114                     110                     100                       0                       0                       0
159                     116                     108              105.656854                       0                       0                       0
160                     116                     108              102.828427                       0                       0                       0
161                     116                     108                     100                       0                       0                       0
162                     118                     110              105.656854                       0                       0                       0
163                     118                     110              102.828427                       0                       0                       0
164                     118                     110                     100                       0                       0                       0
165                     120                     108              105.656854                       0                       0                       0
166                     120                     108              102.828427                       0                       0                       0
167                     120                     108                     100                       0                       0                       0
168                     122                     110              105.656854                       0                       0                       0
169                     122                     110              102.828427                       0                       0                       0
170                     122                     110                     100                       0                       0                       0
171                     124                     108              105.656854                       0                       0                       0
172                     124                     108              102.828427                       0                       0                       0
173                     124                     108                     100                       0                       0                       0
174                     126                     110              105.656854                       0                       0                       0
175                     126                     110              102.828427                       0                       0                       0
176                     126                     110                     100                       0                       0                       0
177                     128                     108              105.656854                       0                       0                       0
178                     128                     108              102.828427                       0                       0                       0
179                     128                     108                     100                       0                       0                       0
180                     130                     110              105.656854                       0                       0                       0
181                     130                     110              102.828427                       0                       0                       0
182                     130                     110                     100                       0                       0                       0
183                     100                     112              105.656854                       0                       0                       0
184                     100                     112              102.828427                       0                       0                       0
185                     100                     112                     100                       0                       0                       0
186                     102                     114              105.656854                       0                       0                       0
187                     102                     114              102.828427                       0                       0                       0
188                     102                     114                     100                       0                       0                       0
189                     104                     112              105.656854                       0                       0                       0
190                     104                     112              102.828427                       0                       0                       0
191                     104                     112                     100                       0                       0                       0
192                     106                     114              105.656854                       0                       0                       0
193                     106                     114              102.828427                       0                       0                       0
194                     106                     114                     100                       0                       0                       0
195                     108                     112              105.656854                       0                       0                       0
196                     108                     112              102.828427                       0                       0                       0
197                     108                     112                     100                       0                       0                       0
198                     110                     114              105.656854                       0                       0                       0
199                     110                     114              102.828427                       0                       0                       0
200                     110                     114                     100                       0                       0                       0
201                     112                     112              105.656854                       0                       0                       0