ITEM: TIMESTEP
0
ITEM: NUMBER OF ATOMS
422
ITEM: BOX BOUNDS ff ff ff
0.0000000000000000e+00 2.3200000000000000e+02
0.0000000000000000e+00 2.3200000000000000e+02
0.0000000000000000e+00 2.3200000000000000e+02
ITEM: ATOMS id xu yu zu fx fy fz
1        113.114564085553        115.952152707392        108.625485891715        10.3206520188508        4.83187682010295      -0.234569198765109
2         118.79979332903        115.961534730593        108.629162488959         2.9673206134726        5.62218714790779      -0.131328084887787
3         117.40532833859        115.990778457438        108.659837344673        1.18229413521834        0.41393970665949     -0.0604256770955304
4        114.607140347897        116.021020251884        108.692922308948       -4.54873789254541       -4.37438628048702        0.27524077322793
5        116.718722016899        114.767371699293        108.674500849129        -3.3076701718624       -4.81174085455661      0.0649277547845662
6        115.305149114587        114.778614732431        108.687176123719       -3.38296973203879       -5.37254424200149       0.379807670739039
7        115.293139976325        117.243820316686        108.677652111298       -0.87137162363943        2.17712033826494       0.135366254395816
8        116.700699191257        117.226563596418        108.658963149835       0.759206655468211         3.9056013548736     -0.0354498074631261
9        114.522153521013        113.552842841431        108.661250600256        4.24042687042611       -6.06154664161587      -0.186811455150122
10        117.414857643893        113.505705565048        108.611158161162      -0.327381151920564       -1.95284895076287      -0.640896897214526
11        114.481727493905        118.390209595025        108.625717943132        7.14240757645844        11.4665971542269      -0.234362634452235
12        117.454355154667         118.42299585819        108.655549044011       -4.10712141931708         6.5150453064934      0.0512776063368383
13        113.079899118179        113.515032445841        108.609441857943       0.578431910194303       -3.53356496549417      -0.152273390423232
14         113.11197210216        118.394078056321        108.646377294047        -4.9108532803584        6.98142234002824     -0.0594173004198816
15        118.831493403168        113.548717470572           108.637379177        8.50163437510001       -4.76855181648987      -0.480165411972607
16         118.88000994928        118.444206648364        108.690758177783      -0.395444234887008        3.65349109461951       0.627023919008992
17        112.399927351379         117.16745145688         108.62998551324       0.401481426065662        5.07484390258252      -0.624389045020351
18        112.465730028031        114.807780784355        108.693354969292       -5.24455177570921        -9.0068216423899       0.384929614814584
19        119.541082265421        114.772888181001        108.651315068729        1.63164135595849       -1.42608374402587      -0.112868561046757
20        119.586890690314        117.244169958246        108.699556715286       -4.86101869893727       -5.37341077685439       0.505695549607209
21        120.984996644004        114.854296707202         108.68671562138        3.18973970986549       -18.1514832955273        0.71728909299219
22        120.922592388053        117.128089255378        108.626655025802        14.1810936806899        16.1740615113131      -0.411207261538668
23          111.0315510255        114.825384181832        108.667779352339       -9.89023419094448       -12.5779437842049       0.536236303929349
24        110.986927969368        117.116957928496        108.625499956223       -7.31770874941871        17.4060222305878      -0.268129514211459
25        121.542819821245        115.948090438624        108.612947360506        8.05320886682058        8.52951492533986      -0.749555912512913
26        110.406417866557         116.00047727075        108.676581292085       -7.62741466886474       -4.08971649593303       0.175577447035162
27        121.625344166001        118.202070261103        108.673002120177        3.50775574181031        1.15764178521208       -0.17615666669042
28        121.647934022056        113.832453305051        108.691185735356        4.64810175775717       -7.50021479747799       0.296857579102019
29        110.400269550569        118.215080287138        108.697308799842       -4.83050093876702        4.08575591632454      0.0957806500832702
30        110.373466512193        113.796070438662        108.666099521933       -4.04050610098952       -4.86691344339914     -0.0544837556719861
31        112.600538173189        112.616126151039        108.657525350946       -3.93164973214147       -5.95169948242096      0.0433646018172775
32         112.61352962081         119.37090944142        108.677280120211       -3.28710084033322        3.94851235677695       0.140755896003241
33        119.429398738891        112.671348940571        108.705939205939        2.48600287600899       -6.13096027400714       0.271083713781047
34        119.324194573278        119.307936626524        108.607498366135        5.86688017162918        10.5799799060973      -0.644418484430097
35         114.92533343961        112.532007430623        108.619900866743        3.45131361776917       -3.41442726369769     -0.0158932201177634
36        114.979612614495        119.425909651954        108.681041505813         1.1229054081433        2.37160655937296     -0.0233007715474956
37        117.065388709315        112.618421695033        108.704250785293       -8.45874950358856       -10.6161610611361       0.725505880206927
38        116.998637272938        119.391293305992        108.644360815407       -2.89151406144378        5.08579945569828      -0.130617257233391
39                     100                     100              105.656854                       0                       0                       0
40                     100                     100              102.828427                       0                       0                       0
41                     100                     100                     100                       0                       0                       0
42                     102                     102              105.656854                       0                       0                       0
43                     102                     102              102.828427                       0                       0                       0
44                     102                     102                     100                       0                       0                       0
45                     104                     100              105.656854                       0                       0                       0
46                     104                     100              102.828427                       0                       0                       0
47                     104                     100                     100                       0                       0                       0
48                     106                     102              105.656854                       0                       0                       0
49                     106                     102              102.828427                       0                       0                       0
50                     106                     102                     100                       0                       0                       0
51                     108                     100              105.656854                       0                       0                       0
52                     108                     100              102.828427                       0                       0                       0
53                     108                     100                     100                       0                       0                       0
54                     110                     102              105.656854                       0                       0                       0
55                     110                     102              102.828427                       0                       0                       0
56                     110                     102                     100                       0                       0                       0
57                     112                     100              105.656854                       0                       0                       0
58                     112                     100              102.828427                       0                       0                       0
59                     112                     100                     100                       0                       0                       0
60                     114                     102              105.656854                       0                       0                       0
61                     114                     102              102.828427                       0                       0                       0
62                     114                     102                     100                       0                       0                       0
63                     116                     100              105.656854                       0                       0                       0
64                     116                     100              102.828427                       0                       0                       0
65                     116                     100                     100                       0                       0                       0
66                     118                     102              105.656854                       0                       0                       0
67                     118                     102              102.828427                       0                       0                       0
68                     118                     102                     100                       0                       0                       0
69                     120                     100              105.656854                       0                       0                       0
70                     120                     100              102.828427                       0                       0                       0
71                     120                     100                     100                       0                       0                       0
72                     122                     102              105.656854                       0                       0                       0
73                     122                     102              102.828427                       0                       0                       0
74                     122                     102                     100                       0                       0                       0
75                     124                     100              105.656854                       0                       0                       0
76                     124                     100              102.828427                       0                       0                       0
77                     124                     100                     100                       0                       0                       0
78                     126                     102              105.656854                       0                       0                       0
79                     126                     102              102.828427                       0                       0                       0
80                     126                     102                     100                       0                       0                       0
81                     128                     100              105.656854                       0                       0                       0
82                     128                     100              102.828427                       0                       0                       0
83                     128                     100                     100                       0                       0                       0
84                     130                     102              105.656854                       0                       0                       0
85                     130                     102              102.828427                       0                       0                       0
86                     130                     102                     100                       0                       0                       0
87                     100                     104              105.656854                       0                       0                       0
88                     100                     104              102.828427                       0                       0                       0
89                     100                     104                     100                       0                       0                       0
90                     102                     106              105.656854                       0                       0                       0
91                     102                     106              102.828427                       0                       0                       0
92                     102                     106                     100                       0                       0                       0
93                     104                     104              105.656854                       0                       0                       0
94                     104                     104              102.828427                       0                       0                       0
95                     104                     104                     100                       0                       0                       0
96                     106                     106              105.656854                       0                       0                       0
97                     106                     106              102.828427                       0                       0                       0
98                     106                     106                     100                       0                       0                       0
99                     108                     104              105.656854                       0                       0                       0
100                     108                     104              102.828427                       0                       0                       0
101                     108                     104                     100                       0                       0                       0
102                     110                     106              105.656854                       0                       0                       0
103                     110                     106              102.828427                       0                       0                       0
104                     110                     106                     100                       0                       0                       0
105                     112                     104              105.656854                       0                       0                       0
106                     112                     104              102.828427                       0                       0                       0
107                     112                     104                     100                       0                       0                       0
108                     114                     106              105.656854                       0                       0                       0
109                     114                     106              102.828427                       0                       0                       0
110                     114                     106                     100                       0                       0                       0
111                     116                     104              105.656854                       0                       0                       0
112                     116                     104              102.828427                       0                       0                       0
113                     116                     104                     100                       0                       0                       0
114                     118                     106              105.656854                       0                       0                       0
115                     118                     106              102.828427                       0                       0                       0
116                     118                     106                     100                       0                       0                       0
117                     120                     104              105.656854                       0                       0                       0
118                     120                     104              102.828427                       0                       0                       0
119                     120                     104                     100                       0                       0                       0
120                     122                     106              105.656854                       0                       0                       0
121                     122                     106              102.828427                       0                       0                       0
122                     122                     106                     100                       0                       0                       0
123                     124                     104              105.656854                       0                       0                       0
124                     124                     104              102.828427                       0                       0                       0
125                     124                     104                     100                       0                       0                       0
126                     126                     106              105.656854                       0                       0                       0
127                     126                     106              102.828427                       0                       0                       0
128                     126                     106                     100                       0                       0                       0
129                     128                     104              105.656854                       0                       0                       0
130                     128                     104              102.828427                       0                       0                       0
131                     128                     104                     100                       0                       0                       0
132                     130                     106              105.656854                       0                       0                       0
133                     130                     106              102.828427                       0                       0                       0
134                     130                     106                     100                       0                       0                       0
135                     100                     108              105.656854                       0                       0                       0
136                     100                     108              102.828427                       0                       0                       0
137                     100                     108                     100                       0                       0                       0
138                     102                     110              105.656854                       0                       0                       0
139                     102                     110              102.828427                       0                       0                       0
140                     102                     110                     100                       0                       0                       0
141                     104                     108              105.656854                       0                       0                       0
142                     104                     108              102.828427                       0                       0                       0
143                     104                     108                     100                       0                       0                       0
144                     106                     110              105.656854                       0                       0                       0
145                     106                     110              102.828427                       0                       0                       0
146                     106                     110                     100                       0                       0                       0
147                     108                     108              105.656854                       0                       0                       0
148                     108                     108              102.828427                       0                       0                       0
149                     108                     108                     100                       0                       0                       0
150                     110                     110              105.656854                       0                       0                       0
151                     110                     110              102.828427                       0                       0                       0
152                     110                     110                     100                       0                       0                       0
153                     112                     108              105.656854                       0                       0                       0
154                     112                     108              102.828427                       0                       0                       0
155                     112                     108                     100                       0                       0                       0
156                     114                     110              105.656854                       0                       0                       0
157                     114                     110              102.828427                       0                       0                       0
158                     114                     110                     100                       0                       0                       0
159                     116                     108              105.656854                       0                       0                       0
160                     116                     108              102.828427                       0                       0                       0
161                     116                     108                     100                       0                       0                       0
162                     118                     110              105.656854                       0                       0                       0
163                     118                     110              102.828427                       0                       0                       0
164                     118                     110                     100                       0                       0                       0
165                     120                     108              105.656854                       0                       0                       0
166                     120                     108              102.828427                       0                       0                       0
167                     120                     108                     100                       0                       0                       0
168                     122                     110              105.656854                       0                       0                       0
169                     122                     110              102.828427                       0                       0                       0
170                     122                     110                     100                       0                       0                       0
171                     124                     108              105.656854                       0                       0                       0
172                     124                     108              102.828427                       0                       0                       0
173                     124                     108                     100                       0                       0                       0
174                     126                     110              105.656854                       0                       0                       0
175                     126                     110              102.828427                       0                       0                       0
176                     126                     110                     100                       0                       0                       0
177                     128                     108              105.656854                       0                       0                       0
178                     128                     108              102.828427                       0                       0                       0
179                     128                     108                     100                       0                       0                       0
180                     130                     110              105.656854                       0                       0                       0
181                     130                     110              102.828427                       0                       0                       0
182                     130                     110                     100                       0                       0                       0
183                     100                     112              105.656854                       0                       0                       0
184                     100                     112              102.828427                       0                       0                       0
185                     100                     112                     100                       0                       0                       0
186                     102                     114              105.656854                       0                       0                       0
187                     102                     114              102.828427                       0                       0                       0
188                     102                     114                     100                       0                       0                       0
189                     104                     112              105.656854                       0                       0                       0
190                     104                     112              102.828427                       0                       0                       0
191                     104                     112                     100                       0                       0                       0
192                     106                     114              105.656854                       0                       0                       0
193                     106                     114              102.828427                       0                       0                       0
194                     106                     114                     100                       0                       0                       0
195                     108                     112              105.656854                       0                       0                       0
196                     108                     112              102.828427                       0                       0                       0
197                     108                     112                     100                       0                       0                       0
198                     110                     114              105.656854                       0                       0                       0
199                     110                     114              102.828427                       0                       0                       0
200                     110                     114                     100                       0                       0                       0
201                     112                     112              105.656854                       0                       0                       0