ITEM: TIMESTEP
0
ITEM: NUMBER OF ATOMS
422
ITEM: BOX BOUNDS ff ff ff
0.0000000000000000e+00 2.3200000000000000e+02
0.0000000000000000e+00 2.3200000000000000e+02
0.0000000000000000e+00 2.3200000000000000e+02
ITEM: ATOMS id xu yu zu fx fy fz
1        113.145932193839        115.983520815677              111.656854      0.0030157624400442    -0.00116028185307275    -0.00163885034872008
2        118.827484840071        115.989226241634              111.656854    -0.00537958320738738    -0.00113130538342866    -0.00125117012544689
3        117.402344993917        115.987795112765              111.656854     0.00256433421707999     0.00249345717546801    -0.00206230626072367
4        114.571072038949        115.984951942936              111.656854     0.00250506134992085     0.00253376845344722    -0.00165353463921813
5        116.701075167769        114.749724850164              111.656854     0.00303844035011583     0.00435969939688913    -0.00186344459048292
6        115.274826990867        114.748292608712              111.656854     0.00364355788470487     0.00437043624710354    -0.00159333420800367
7        115.272341865028        117.223022205388              111.656854     0.00361597462275576      0.0023226507737123    -0.00206358238452398
8        116.698590041422        117.224454446583              111.656854     0.00297691912236614     0.00227817829731733    -0.00232937705524702
9        114.517756920757        113.548446241175              111.656854    -0.00309256145567122    -0.00533543908030838    -0.00239391531512829
10        117.460553482731        113.551401403886              111.656854     -0.0127340728625785    -0.00537498152894225    -0.00106301868561569
11        114.512863550773        118.421345651893              111.656854    -0.00303317176965509     -0.0106213094829402   -0.000156645447087363
12        117.455660110655        118.424300814179              111.656854     -0.0123501523920631      -0.010338367417354     0.00113324697335267
13        113.127311260236        113.562444587898              111.656854      0.0148119292962807    -0.00685699576746165    -0.00281163553542459
14        113.122448808114        118.404554762274              111.656854      0.0147287125429155    -0.00662031954149346   -0.000930004593193718
15        118.850968226168        113.568192293572              111.656854     -0.0284174739208156     -0.0069480406929041   -0.000558189530078347
16        118.846105771496         118.41030247058              111.656854     -0.0279688642005305     -0.0061821867965369     0.00125671442687027
17        112.426795838139         117.19431994364              111.656854     0.00326810205143256      0.0070889049506227    -0.00146965866451507
18         112.42922905874        114.771279815063              111.656854     0.00322891614082471     0.00109910061574378   -0.000907079443047463
19        119.546621196692        114.778427112272              111.656854     0.00520949763604943     0.00103729467428063    -0.00265884287932106
20        119.544187975028         117.20146724296              111.656854     0.00504600570572385     0.00682491464992399     -0.0031973371081595
21        120.955135022624        114.824435085822              111.656854       0.106436113651806       0.135631643490508     -0.0193157823456624
22        120.952791362251        117.158288229576              111.656854       0.104461339845608     -0.0486608866995643      -0.025024429859805
23        111.020625673161        114.814458829493              111.656854    -0.00826758715547726       0.136588208628561     0.00988376550862628
24        111.018282013145        117.148311972274              111.656854    -0.00715021732639082     -0.0446119324653255     0.00378817906023743
25        121.586726460739        115.991997078118              111.656854     -0.0360479947985874     -0.0230909630548395      0.0115279035597737
26        110.386690574472        115.980749978664              111.656854     -0.0176956180647598     -0.0246596250505055    -0.00673418559751592
27        121.609196045824        118.185922140926              111.656854      -0.119784478711142     -0.0558864112239443      0.0347077149309543
28          121.6136022867        113.798121569695              111.656854      -0.125221323352935     -0.0495735872497584      0.0216164912585846
29        110.359814750727        118.174625487296              111.656854    0.000716064407028399     -0.0634297299059598    -0.00588897573702322
30         110.36422099026         113.78682491673              111.656854     0.00332222565300239     -0.0490649952651159     -0.0200356246248055
31        112.599866822243        112.615454800093              111.656854     -0.0309117030844055      0.0111792298805853     0.00449156084727268
32        112.593103500599        119.350483321209              111.656854     -0.0304397494001944      0.0249763450532697    -0.00260209867343335
33        119.380313532952        112.622263734631              111.656854      0.0671957856229176      0.0117527206961648    -0.00267103780519336
34        119.373550207142        119.357292260389              111.656854      0.0653379292328201      0.0232322718206836    -0.00946780598314107
35        114.962286572867         112.56896056388              111.656854      0.0121977558074977     0.00628461588008478     0.00119041938555515
36        114.955425108682        119.401722146141              111.656854      0.0119744264550801      0.0174129647037166    -0.00351887416479034
37        117.017991924022        112.571024909739              111.656854      0.0108779582352863     0.00638012827027995   -0.000160149421201278
38        117.011130457531        119.403786490585              111.656854      0.0101882262247114      0.0170457913645015     -0.0048084976632464
39                     100                     100              105.656854       0.212142281324556        0.21373961120158       -0.97554111331902
40                     100                     100              102.828427       0.432016726413436       0.430714152069059    -0.00039441161099452
41                     100                     100                     100       0.212177298043419       0.213188686419913       0.976253615927062
42                     102                     102              105.656854      -0.344447864519332      -0.347049876336078      -0.278192330984517
43                     102                     102              102.828427      -0.050874901740416     -0.0488774817526506    0.000640091699074028
44                     102                     102                     100      -0.344588616900391      -0.346043327501066       0.277028097059968
45                     104                     100              105.656854      0.0959092707339007       0.959790015071431      -0.808861254734429
46                     104                     100              102.828427     -0.0639621284173618       0.727001079166936   -0.000230262289101519
47                     104                     100                     100       0.096381654914439       0.959217652520991       0.809272864910805
48                     106                     102              105.656854      -0.149509818055275      -0.514318947473212       -0.38150293837448
49                     106                     102              102.828427       0.142747425108121      0.0660131446769201    0.000212805945357816
50                     106                     102                     100      -0.150643694127004      -0.513446150865414       0.381097101622526
51                     108                     100              105.656854       0.109983644182958        1.06004005664278      -0.802036077932449
52                     108                     100              102.828427      -0.112071906642815       0.639880864151942    0.000346136791977739
53                     108                     100                     100       0.111079183933104        1.06007526324917       0.801396112706459
54                     110                     102              105.656854      -0.144251750635494      -0.582187523251167      -0.373473821589889
55                     110                     102              102.828427       0.149073819982598       0.135180559215426    -0.00103533105166991
56                     110                     102                     100      -0.146413411470357      -0.582947545303883       0.375384685393141
57                     112                     100              105.656854       0.132199963589157        1.10908913694124      -0.811092660215978
58                     112                     100              102.828427      -0.136039963552711       0.588741131177514     0.00121293721917313
59                     112                     100                     100       0.133308668559681         1.1104230301232       0.808850966334458
60                     114                     102              105.656854      -0.164535471450027       -0.62081024163793      -0.360641275319754
61                     114                     102              102.828427       0.169441993204984       0.176622830862117    -0.00240668759167063
62                     114                     102                     100      -0.165770426095962      -0.623886653976947       0.365178000581295
63                     116                     100              105.656854       0.166588297154784        1.14504596039038      -0.821788956335969
64                     116                     100              102.828427      -0.170771493384718       0.551120412422899     0.00166327232671326
65                     116                     100                     100       0.166587159697807        1.14713874416102       0.818707906321758
66                     118                     102              105.656854      -0.208761283733653      -0.653006393984468      -0.347209228715602
67                     118                     102              102.828427       0.213646210093386       0.209866725942793    -0.00240484186707946
68                     118                     102                     100      -0.207522554442288      -0.656077888094826       0.351742245402855
69                     120                     100              105.656854       0.222679859148401         1.1831713053025      -0.835660200012577
70                     120                     100              102.828427      -0.228048772847049       0.512234824999334     0.00121211593165045
71                     120                     100                     100        0.22157193386973        1.18450252526709       0.833420074932807
72                     122                     102              105.656854      -0.287604781964587      -0.688356913534944      -0.329945231852393
73                     122                     102              102.828427       0.292363452986907       0.244743692198986    -0.00103425844176544
74                     122                     102                     100      -0.285448728767042      -0.689113202164495       0.331854146016316
75                     124                     100              105.656854       0.325895335957231        1.23668338844181      -0.852234485366851
76                     124                     100              102.828427      -0.322443946263218       0.459496312302217    0.000347118921997112
77                     124                     100                     100       0.324803229568122        1.23671926922415       0.851592655266876
78                     126                     102              105.656854      -0.461252694772795      -0.727120400221525      -0.332070670773096
79                     126                     102              102.828427       0.396668222019928       0.281191732736312    0.000209403259298495
80                     126                     102                     100      -0.460123832630365      -0.726252431623347       0.331671523199746
81                     128                     100              105.656854       0.708121267046039        1.34043797952706       -0.75466232072859
82                     128                     100              102.828427      -0.280708873495025       0.396380693039756    -0.00022729629233037
83                     128                     100                     100       0.707650445172739        1.33986941813525       0.755068460741065
84                     130                     102              105.656854       -1.34063715910465      -0.708225709197161      -0.755631663897518
85                     130                     102              102.828427      -0.395887042109433        0.28046848951507    0.000634948298625599
86                     130                     102                     100       -1.34049630747579      -0.707225586257658       0.754476977652993
87                     100                     104              105.656854       0.958787951898649       0.099398643292537      -0.808076699228385
88                     100                     104              102.828427       0.727928275117824     -0.0665428385196504    -0.00101419099186899
89                     100                     104                     100       0.958423022484786      0.0981865086670173       0.809926650607905
90                     102                     106              105.656854      -0.512961761311771       -0.15550123014891      -0.383313283227329
91                     102                     106              102.828427      0.0646886040054796       0.146747433069124     0.00179346258844591
92                     102                     106                     100      -0.512327326213706      -0.153183200157916       0.379936667019486
93                     104                     104              105.656854       0.247122774299161       0.251597879517511      -0.388220971868451
94                     104                     104              102.828427      -0.180113173775326      -0.183255222640187    -0.00102994037523499
95                     104                     104                     100       0.247626160757277       0.249725205334503       0.390170168572168
96                     106                     106              105.656854       -0.23325171138092      -0.241384067419628      -0.504693638258396
97                     106                     106              102.828427       0.225989248351276       0.230982067204915     0.00152505744877465
98                     106                     106                     100      -0.235010364771066      -0.237986610864584       0.501422696156464
99                     108                     104              105.656854       0.174429328704095       0.337429013778848      -0.375402062999042
100                     108                     104              102.828427      -0.178582955739311      -0.267964389502484    0.000115570518817082
101                     108                     104                     100       0.177217472133828       0.336394583258009       0.375311709535834
102                     110                     106              105.656854      -0.186598155711131      -0.291900025130009      -0.489312491777482
103                     110                     106              102.828427       0.195880855924014       0.285247848809599    -0.00148653217065134
104                     110                     106                     100      -0.193174393191833      -0.291921657727689       0.491879504236051
105                     112                     104              105.656854       0.169319773890006       0.381522076324444      -0.391618640907931
106                     112                     104              102.828427      -0.176197646134733      -0.316193428274288     0.00267542873874459
107                     112                     104                     100       0.173079100355807       0.384498559721309       0.386472517084799
108                     114                     106              105.656854      -0.192069929947701      -0.316938846685137      -0.466995335065897
109                     114                     106              102.828427       0.200216035961056       0.316947795898689    -0.00588627414129049
110                     114                     106                     100      -0.196553632604024       -0.32475677180277       0.479387858688163
111                     116                     104              105.656854       0.198194892739324       0.410136582124569      -0.407306880525454
112                     116                     104              102.828427      -0.203399774607429      -0.347741964264865     0.00420808613175276
113                     116                     104                     100       0.198187488119454       0.415923080580277       0.399015392482666
114                     118                     106              105.656854      -0.237152504222599      -0.339154394835035      -0.451103680496052
115                     118                     106              102.828427       0.240604603716357       0.339846407286172    -0.00587627122535809
116                     118                     106                     100      -0.232646532983102       -0.34694752088071       0.463472036305729
117                     120                     104              105.656854       0.258097430323542       0.438186625484837      -0.422337468982382
118                     120                     104              102.828427      -0.262797857033376      -0.374695826895319     0.00266964307726258
119                     120                     104                     100       0.254340631646833       0.441148346098054       0.417203418497999
120                     122                     106              105.656854       -0.31365503857089      -0.361884814100155      -0.437544411870502
121                     122                     106              102.828427       0.316072314160027       0.357501026878695     -0.0014787418255726
122                     122                     106                     100      -0.307105612187142      -0.361888334104887       0.440097058274109
123                     124                     104              105.656854       0.366811192045241       0.462734554971648      -0.438725913963022
124                     124                     104              102.828427      -0.361089920764158      -0.397174424930644    0.000117037268014698
125                     124                     104                     100       0.364036615114407       0.461701819784888       0.438631322407523
126                     126                     106              105.656854        -0.4659818502357       -0.36569266787747      -0.441603934447074
127                     126                     106              102.828427       0.400353587985898       0.359226451032863     0.00151595735048215
128                     126                     106                     100      -0.464237529006955      -0.362310943499619       0.438356322937551
129                     128                     104              105.656854       0.728046545875576       0.461097055279707      -0.330370488250701
130                     128                     104              102.828427      -0.282484341486299      -0.395944650782998    -0.00102223695178758
131                     128                     104                     100       0.727545867116111       0.459235491373421       0.332304236564703
132                     130                     106              105.656854       -1.23742582780738      -0.326765868019897      -0.854143661647189
133                     130                     106              102.828427      -0.458237292064805       0.322491656172016     0.00178128008123536
134                     130                     106                     100         -1.238055870715      -0.324462329944903       0.850791409140959
135                     100                     108              105.656854         1.0616647138691       0.115391353943213       -0.79926751431229
136                     100                     108              102.828427       0.639307744113659       -0.11572486771047    -0.00217863517152501
137                     100                     108                     100        1.06006746086546       0.113410694555008        0.80332284371724
138                     102                     110              105.656854       -0.58598285203492      -0.152654139389308      -0.379822497607178
139                     102                     110              102.828427       0.136297769475625       0.154070899004627     0.00386688100683273
140                     102                     110                     100      -0.582916708587793      -0.149265863038012         0.3721486899574
141                     104                     108              105.656854       0.335658402068763       0.185031783007599      -0.370829083301639
142                     104                     108              102.828427      -0.265986575014396      -0.184676552797455    -0.00314147879574684
143                     104                     108                     100       0.334777855471287       0.180636374154747       0.377333972697347
144                     106                     110              105.656854      -0.289345156970885      -0.204732433600895      -0.501472145176602
145                     106                     110              102.828427       0.282011099963012       0.204400196084303     0.00497340920149609
146                     106                     110                     100      -0.289534102712393      -0.197326810342234         0.4885993785411
147                     108                     108              105.656854       0.224532454542875       0.239751342295579      -0.361614064733233
148                     108                     108              102.828427      -0.232243391474697      -0.239930596168802    -0.00158603805916724
149                     108                     108                     100       0.230497000059964       0.234484977476285       0.366544590926502
150                     110                     110              105.656854      -0.209913093101328      -0.235907842241762      -0.478448908261828
151                     110                     110              102.828427       0.228338408709157       0.238818798859933   -0.000794733649401465
152                     110                     110                     100      -0.227329317121555      -0.232058948184256       0.476162618610372
153                     112                     108              105.656854       0.192703490823533        0.26405812173995      -0.391466246147066
154                     112                     108              102.828427      -0.207051781412391      -0.272791018769667     0.00536710577430162
155                     112                     108                     100       0.205290447763468       0.268926764244167       0.379960104613671
156                     114                     110              105.656854      -0.203632665704721      -0.239483300548321      -0.430201736883352
157                     114                     110              102.828427       0.219460174510847       0.256638035042034     -0.0124016690558282
158                     114                     110                     100       -0.21733032967162      -0.252794980629278       0.463494002152637
159                     116                     108              105.656854       0.220214795087667       0.276518125164854      -0.417883690945867
160                     116                     108              102.828427      -0.226089562972841      -0.292430941425916      0.0102062751120744
161                     116                     108                     100       0.220177819320874       0.289958629806782       0.393730342731761
162                     118                     110              105.656854      -0.259139391076441      -0.250511500743651      -0.412965165670015
163                     118                     110              102.828427       0.255898987027598       0.267940936211591     -0.0123641035253795
164                     118                     110                     100      -0.245341729839579       -0.26375036491188       0.446137050987043
165                     120                     108              105.656854       0.282340756943352       0.297699772806977      -0.426205690201067
166                     120                     108              102.828427      -0.281155872589866      -0.307438435386579     0.00533949719264704
167                     120                     108                     100       0.269765113670124       0.302504557991442       0.414771222472752
168                     122                     110              105.656854      -0.326750488931928      -0.269459632279959      -0.422101618549211
169                     122                     110              102.828427       0.321328113912145        0.27336341117717   -0.000759627579972271
170                     122                     110                     100      -0.309446796203994       -0.26553445632194       0.419738856325543
171                     124                     108              105.656854        0.37235003620564       0.309374269113836      -0.433967977390092
172                     124                     108              102.828427      -0.364733505617612      -0.311829556357191     -0.0015852904321203
173                     124                     108                     100       0.366437682300731       0.304111679711322       0.438877925822397
174                     126                     110              105.656854      -0.446067587010398      -0.260619376804397      -0.430076078805293
175                     126                     110              102.828427       0.381635264958403       0.262129990400464     0.00495469505365088
176                     126                     110                     100      -0.445910659542807      -0.253236857502388       0.417284145582924
177                     128                     108              105.656854       0.690849973330837       0.289145730630348      -0.326128941855577
178                     128                     108              102.828427      -0.247783280496469      -0.292203522264948    -0.00312271873084246
179                     128                     108                     100       0.691729633452892       0.284774837643297       0.332587603847983
180                     130                     110              105.656854        -1.1834782697344      -0.225014706752594      -0.839792990372254
181                     130                     110              102.828427      -0.510417572736247       0.228827850700413     0.00384338463873396
182                     130                     110                     100       -1.18652688026415      -0.221644531509092       0.832172529587165
183                     100                     112              105.656854        1.11511064364326       0.136840208747112      -0.805436027030836
184                     100                     112              102.828427       0.585862347869648      -0.138987279333337    -0.00360349209006118
185                     100                     112                     100        1.11153029816305       0.135077906741702       0.812297489577571
186                     102                     114              105.656854       -0.63091490925942      -0.168799891722505      -0.371989230105537
187                     102                     114              102.828427       0.180497421017766       0.171852644624352     0.00579710618738063
188                     102                     114                     100      -0.624998088845883      -0.167077248299244       0.360064828165133
189                     104                     112              105.656854       0.389091476188222         0.1808560128469      -0.376800479022283
190                     104                     112              102.828427      -0.317667495232414      -0.182055711951839    -0.00643123564588051
191                     104                     112                     100       0.384159077736295       0.176035141130395       0.391534930307465
192                     106                     114              105.656854      -0.326530497692018      -0.202404784779862      -0.497856824548923
193                     106                     114              102.828427       0.317235554434809        0.20482237229262     0.00876304857900732
194                     106                     114                     100      -0.323473240452927      -0.198639638718209       0.472540103749902
195                     108                     112              105.656854       0.257060583521599       0.217186005991797      -0.362608806478763
196                     108                     112              102.828427      -0.266989131921559      -0.216562208395924     -0.0054881242692793
197                     108                     112                     100       0.265472052954781       0.209396921017541       0.384508932372457
198                     110                     114              105.656854      -0.217511496700999      -0.219643797105179       -0.46796164232411
199                     110                     114              102.828427       0.247252455646017       0.226005555256751    0.000465618803709115
200                     110                     114                     100      -0.248360897479324      -0.219990207248276       0.458690766283677
201                     112                     112              105.656854       0.195543347322241       0.226279999089279       -0.41687967736197