ITEM: TIMESTEP
0
ITEM: NUMBER OF ATOMS
422
ITEM: BOX BOUNDS ff ff ff
0.0000000000000000e+00 2.3200000000000000e+02
0.0000000000000000e+00 2.3200000000000000e+02
0.0000000000000000e+00 2.3200000000000000e+02
ITEM: ATOMS id xu yu zu fx fy fz
1        113.104626259993        115.942214881831        108.615548066154     -0.0153131585320397      0.0469420586978993       0.925704832939785
2        118.864284698805        116.026026100369        108.693653858734      0.0027276722476709   -0.000365598014355151       0.129949509972098
3        117.443577604539        116.029027723387        108.698086610623       0.024980856911628     0.00361135954052403      -0.777757738051706
4        114.608692629144        116.022572533131        108.694474590195      0.0179189247070616    -0.00810145270923283      -0.850834738168113
5        116.659362667928        114.708012350322        108.615141500158     -0.0135234816111964     -0.0226844049131061       0.535523038811053
6        115.263550113331        114.737015731175        108.645577122463     0.00210111566463828    -0.00439939416598424       0.120742998775791
7         115.27113606357        117.221816403931        108.655648198543      0.0013876305676145    0.000951812824598486      0.0546606418892699
8         116.67898499297        117.204849398131        108.637248951548     -0.0131369884719728      0.0121466475309841       0.616510704661108
9        114.516773077487        113.547462397904        108.655870156729    -0.00407618030550688      0.0127896878370937       0.192555128165129
10        117.432205734763        113.523053655917        108.628506252031     0.00203447168767667      0.0252925178235524       0.364614306149742
11        114.509229674547        118.417711775668        108.653220123775    -0.00154481686115444    -0.00168863589070663       0.110440747562209
12        117.466607821936         118.43524852546        108.667801711281     0.00156869436458559    -0.00041596704342405       -0.12457582520994
13        113.161179980908         113.59631330857        108.690722720673     0.00546114860880174     0.00168297795393126      0.0856457625095468
14        113.127870970242        118.409976924402        108.662276162128     0.00614690371446164     0.00345237753692716      -0.385494028669613
15        118.876247189795        113.593471257199        108.682132963627    0.000816998693544911      0.0121304289215692      -0.460045239999589
16         118.84509420315        118.409290902234        108.655842431654   -0.000885564457669749      0.0119407367919111       0.468790093943968
17        112.384733418076        117.152257523577        108.614791579937     0.00566755191015652     -0.0154121437956477       0.372969549129921
18        112.475420250563        114.817471006887        108.703045191824     -0.0100129559108833     -0.0395561218636439      -0.783759569761191
19        119.565990560171        114.797796475751        108.676223363479   -0.000206268259281714    -0.00159916531769053       0.265361229722261
20        119.585275102245        117.242554370177        108.697941127217     -0.0269264216306016     -0.0281768213851201      -0.727017178501195
21        121.000743147965        114.870043211164        108.702462125341    -0.00228218007271033     0.00213609047698009      -0.186631526598898
22        120.924806584353        117.130303451678        108.628869222102       0.026846538898215      0.0266053135670255        0.72394868789237
23        111.032552776685        114.826385933017        108.668781103524     0.00523707521073311     0.00604559270994225      0.0332333077221903
24        111.021387066935        117.151417026064         108.65995905379    -0.00468248493219059     0.00847055472161689      -0.406826026801104
25        121.607947576881        116.013218194259        108.678075116142    -0.00227725023175093      -0.014533375163527      -0.249870364633301
26        110.364170188135        115.958229592328        108.634333613663     -0.0127302037177421    -0.00168772456606287       0.340428546065652
27        121.604214269495        118.180940364597        108.651872223671    -0.00151557221562462     0.00350183042822879      -0.115178920979013
28        121.638801094319        113.823320377314        108.682052807619     0.00202292390098134   -0.000665441209552394      0.0973709756290244
29        110.380653974731          118.1954647113        108.677693224004     0.00100602709229275     0.00108811786017428     -0.0277121555492848
30        110.407157698911         113.82976162538         108.69979070865    0.000300751618632273    -0.00248565727034384     -0.0738215744709305
31        112.631078594203        112.646666572053         108.68806577196     0.00155143207101021    -0.00110034141125896      0.0837499561023204
32        112.561161456844        119.318541277454        108.624911956244     -0.0055802146908973     0.00298116645035814       0.157127448064253
33        119.342754498297        112.584704699977        108.619294965346      0.0019543380088033      -0.013271357562956       0.227559996084355
34        119.407008197254          119.3907502505        108.690311990111     0.00566252033104148    0.000617675080981404      -0.109896168325656
35        115.007150512006        112.613824503019        108.701717939139     0.00102305365778969    -0.00871639187393865      -0.188441746450522
36         114.96647871793        119.412775755389        108.667907609248    0.000645919739019174    0.000808936917318391     -0.0749134474387382
37        117.058400864474        112.611433850192        108.697262940453    -0.00178459101592339     -0.0206545483669436      -0.283553275040786
38        117.054185280743        119.446841313796        108.699908823212    -0.00058421668921288      0.0023186588518781     -0.0805579371424663
39                     100                     100              105.656854                       0                       0                       0
40                     100                     100              102.828427                       0                       0                       0
41                     100                     100                     100                       0                       0                       0
42                     102                     102              105.656854                       0                       0                       0
43                     102                     102              102.828427                       0                       0                       0
44                     102                     102                     100                       0                       0                       0
45                     104                     100              105.656854                       0                       0                       0
46                     104                     100              102.828427                       0                       0                       0
47                     104                     100                     100                       0                       0                       0
48                     106                     102              105.656854                       0                       0                       0
49                     106                     102              102.828427                       0                       0                       0
50                     106                     102                     100                       0                       0                       0
51                     108                     100              105.656854                       0                       0                       0
52                     108                     100              102.828427                       0                       0                       0
53                     108                     100                     100                       0                       0                       0
54                     110                     102              105.656854                       0                       0                       0
55                     110                     102              102.828427                       0                       0                       0
56                     110                     102                     100                       0                       0                       0
57                     112                     100              105.656854                       0                       0                       0
58                     112                     100              102.828427                       0                       0                       0
59                     112                     100                     100                       0                       0                       0
60                     114                     102              105.656854                       0                       0                       0
61                     114                     102              102.828427                       0                       0                       0
62                     114                     102                     100                       0                       0                       0
63                     116                     100              105.656854                       0                       0                       0
64                     116                     100              102.828427                       0                       0                       0
65                     116                     100                     100                       0                       0                       0
66                     118                     102              105.656854                       0                       0                       0
67                     118                     102              102.828427                       0                       0                       0
68                     118                     102                     100                       0                       0                       0
69                     120                     100              105.656854                       0                       0                       0
70                     120                     100              102.828427                       0                       0                       0
71                     120                     100                     100                       0                       0                       0
72                     122                     102              105.656854                       0                       0                       0
73                     122                     102              102.828427                       0                       0                       0
74                     122                     102                     100                       0                       0                       0
75                     124                     100              105.656854                       0                       0                       0
76                     124                     100              102.828427                       0                       0                       0
77                     124                     100                     100                       0                       0                       0
78                     126                     102              105.656854                       0                       0                       0
79                     126                     102              102.828427                       0                       0                       0
80                     126                     102                     100                       0                       0                       0
81                     128                     100              105.656854                       0                       0                       0
82                     128                     100              102.828427                       0                       0                       0
83                     128                     100                     100                       0                       0                       0
84                     130                     102              105.656854                       0                       0                       0
85                     130                     102              102.828427                       0                       0                       0
86                     130                     102                     100                       0                       0                       0
87                     100                     104              105.656854                       0                       0                       0
88                     100                     104              102.828427                       0                       0                       0
89                     100                     104                     100                       0                       0                       0
90                     102                     106              105.656854                       0                       0                       0
91                     102                     106              102.828427                       0                       0                       0
92                     102                     106                     100                       0                       0                       0
93                     104                     104              105.656854                       0                       0                       0
94                     104                     104              102.828427                       0                       0                       0
95                     104                     104                     100                       0                       0                       0
96                     106                     106              105.656854                       0                       0                       0
97                     106                     106              102.828427                       0                       0                       0
98                     106                     106                     100                       0                       0                       0
99                     108                     104              105.656854                       0                       0                       0
100                     108                     104              102.828427                       0                       0                       0
101                     108                     104                     100                       0                       0                       0
102                     110                     106              105.656854                       0                       0                       0
103                     110                     106              102.828427                       0                       0                       0
104                     110                     106                     100                       0                       0                       0
105                     112                     104              105.656854                       0                       0                       0
106                     112                     104              102.828427                       0                       0                       0
107                     112                     104                     100                       0                       0                       0
108                     114                     106              105.656854                       0                       0                       0
109                     114                     106              102.828427                       0                       0                       0
110                     114                     106                     100                       0                       0                       0
111                     116                     104              105.656854                       0                       0                       0
112                     116                     104              102.828427                       0                       0                       0
113                     116                     104                     100                       0                       0                       0
114                     118                     106              105.656854                       0                       0                       0
115                     118                     106              102.828427                       0                       0                       0
116                     118                     106                     100                       0                       0                       0
117                     120                     104              105.656854                       0                       0                       0
118                     120                     104              102.828427                       0                       0                       0
119                     120                     104                     100                       0                       0                       0
120                     122                     106              105.656854                       0                       0                       0
121                     122                     106              102.828427                       0                       0                       0
122                     122                     106                     100                       0                       0                       0
123                     124                     104              105.656854                       0                       0                       0
124                     124                     104              102.828427                       0                       0                       0
125                     124                     104                     100                       0                       0                       0
126                     126                     106              105.656854                       0                       0                       0
127                     126                     106              102.828427                       0                       0                       0
128                     126                     106                     100                       0                       0                       0
129                     128                     104              105.656854                       0                       0                       0
130                     128                     104              102.828427                       0                       0                       0
131                     128                     104                     100                       0                       0                       0
132                     130                     106              105.656854                       0                       0                       0
133                     130                     106              102.828427                       0                       0                       0
134                     130                     106                     100                       0                       0                       0
135                     100                     108              105.656854                       0                       0                       0
136                     100                     108              102.828427                       0                       0                       0
137                     100                     108                     100                       0                       0                       0
138                     102                     110              105.656854                       0                       0                       0
139                     102                     110              102.828427                       0                       0                       0
140                     102                     110                     100                       0                       0                       0
141                     104                     108              105.656854                       0                       0                       0
142                     104                     108              102.828427                       0                       0                       0
143                     104                     108                     100                       0                       0                       0
144                     106                     110              105.656854                       0                       0                       0
145                     106                     110              102.828427                       0                       0                       0
146                     106                     110                     100                       0                       0                       0
147                     108                     108              105.656854                       0                       0                       0
148                     108                     108              102.828427                       0                       0                       0
149                     108                     108                     100                       0                       0                       0
150                     110                     110              105.656854                       0                       0                       0
151                     110                     110              102.828427                       0                       0                       0
152                     110                     110                     100                       0                       0                       0
153                     112                     108              105.656854                       0                       0                       0
154                     112                     108              102.828427                       0                       0                       0
155                     112                     108                     100                       0                       0                       0
156                     114                     110              105.656854                       0                       0                       0
157                     114                     110              102.828427                       0                       0                       0
158                     114                     110                     100                       0                       0                       0
159                     116                     108              105.656854                       0                       0                       0
160                     116                     108              102.828427                       0                       0                       0
161                     116                     108                     100                       0                       0                       0
162                     118                     110              105.656854                       0                       0                       0
163                     118                     110              102.828427                       0                       0                       0
164                     118                     110                     100                       0                       0                       0
165                     120                     108              105.656854                       0                       0                       0
166                     120                     108              102.828427                       0                       0                       0
167                     120                     108                     100                       0                       0                       0
168                     122                     110              105.656854                       0                       0                       0
169                     122                     110              102.828427                       0                       0                       0
170                     122                     110                     100                       0                       0                       0
171                     124                     108              105.656854                       0                       0                       0
172                     124                     108              102.828427                       0                       0                       0
173                     124                     108                     100                       0                       0                       0
174                     126                     110              105.656854                       0                       0                       0
175                     126                     110              102.828427                       0                       0                       0
176                     126                     110                     100                       0                       0                       0
177                     128                     108              105.656854                       0                       0                       0
178                     128                     108              102.828427                       0                       0                       0
179                     128                     108                     100                       0                       0                       0
180                     130                     110              105.656854                       0                       0                       0
181                     130                     110              102.828427                       0                       0                       0
182                     130                     110                     100                       0                       0                       0
183                     100                     112              105.656854                       0                       0                       0
184                     100                     112              102.828427                       0                       0                       0
185                     100                     112                     100                       0                       0                       0
186                     102                     114              105.656854                       0                       0                       0
187                     102                     114              102.828427                       0                       0                       0
188                     102                     114                     100                       0                       0                       0
189                     104                     112              105.656854                       0                       0                       0
190                     104                     112              102.828427                       0                       0                       0
191                     104                     112                     100                       0                       0                       0
192                     106                     114              105.656854                       0                       0                       0
193                     106                     114              102.828427                       0                       0                       0
194                     106                     114                     100                       0                       0                       0
195                     108                     112              105.656854                       0                       0                       0
196                     108                     112              102.828427                       0                       0                       0
197                     108                     112                     100                       0                       0                       0
198                     110                     114              105.656854                       0                       0                       0
199                     110                     114              102.828427                       0                       0                       0
200                     110                     114                     100                       0                       0                       0
201                     112                     112              105.656854                       0                       0                       0