ITEM: TIMESTEP
0
ITEM: NUMBER OF ATOMS
422
ITEM: BOX BOUNDS pp pp pp
0.0000000000000000e+00 3.2000000000000000e+01
0.0000000000000000e+00 3.2000000000000000e+01
0.0000000000000000e+00 3.2000000000000000e+01
ITEM: ATOMS id xu yu zu fx fy fz
1        14.7459321938386        15.9835208156773                 8.65685     0.00588424994538255    0.000612673969321988     0.00995358259789734
2        20.4274848400711        15.9892262416344                 8.65685    -0.00266213415211946    0.000114191317184931    -0.00273002645532192
3         19.002344993917         15.987795112765                 8.65685     0.00568046394781199     0.00033958930255356     0.00503269213007269
4         16.171072038949        15.9849519429358                 8.65685    -0.00104970143711308    0.000102893072247253    -0.00415014801106514
5        18.3010751677692        14.7497248501637                 8.65685      0.0154361617761985       0.038473337781914       0.130101601099237
6        16.8748269908674        14.7482926087119                 8.65685     -0.0272735182214873      0.0183754443091056        0.05495351013774
7        16.8723418650276        17.2230222053877                 8.65685     -0.0264895784775033     -0.0184893360699413      0.0528861447273631
8        18.2985900414216        17.2244544465825                 8.65685      0.0149480531126808     -0.0388540954784773       0.126655458878092
9        16.1177569207574        13.5484462411751                 8.65685    -0.00545918405604522    -0.00476951565471522      0.0162792236283215
10        19.0605534827313        13.5514014038861                 8.65685       0.035365799046648     -0.0150920019688367       0.080124569419728
11        16.1128635507729         18.421345651893                 8.65685    -0.00532024370403356     0.00452028033109279      0.0166594760813485
12        19.0556601106552        18.4243008141789                 8.65685      0.0359167988532706      0.0145593827749704      0.0820086961030914
13        14.7273112602357        13.5624445878976                 8.65685      0.0357715517654003     -0.0215079589629282       0.124000660564653
14        14.7224488081137        18.4045547622743                 8.65685      0.0363203372826304      0.0203241788791086        0.12710569430691
15         20.450968226168        13.5681922935721                 8.65685     -0.0204513171720917    -0.00697755729705807      0.0315322522321672
16        20.4461057714963        18.4103024705805                 8.65685     -0.0204782642543377     0.00665889453644866      0.0316915697602473
17         14.026795838139        17.1943199436399                 8.65685     0.00137572773504179      -0.041397717898203       0.130372851162785
18        14.0292290587396        14.7712798150634                 8.65685     0.00155257886784308      0.0410160530483134       0.135454113633193
19        21.1466211966922        14.7784271122721                 8.65685     -0.0284998243278322      0.0260138899285201      0.0795328237424405
20        21.1441879750283        17.2014672429596                 8.65685     -0.0279418069214873     -0.0260863842529561      0.0774494986576049
21        22.5551350226241        14.8244350858224                 8.65685      0.0230718330480838      0.0342491422438788       0.102405289537569
22        22.5527913622507        17.1582882295758                 8.65685      0.0225993667931826     -0.0343889157489134       0.100489837064433
23        12.6206256731611        14.8144588294926                 8.65685     -0.0200481126578946      0.0126707649483988       0.030541618263159
24        12.6182820131454        17.1483119722736                 8.65685     -0.0192113124546252     -0.0126703700105664      0.0287781144294493
25        23.1867264607395        15.9919970781177                 8.65685     0.00162010629568427    6.52181022418399e-05    -0.00764664782716751
26        11.9866905744716        15.9807499786644                 8.65685    2.38664233587003e-05    3.44828419577594e-05     -0.0100378822889556
27         23.209196045824        18.1859221409264                 8.65685      0.0146117530659067     0.00225406748631013      0.0211803694636777
28        23.2136022867001        13.7981215696947                 8.65685      0.0144986679813325    -0.00242093952986079      0.0208085195760516
29        11.9598147507275        18.1746254872963                 8.65685    0.000842156991379505    0.000724570682410889    -0.00103649773189674
30        11.9642209902605        13.7868249167297                 8.65685    0.000742631299509082   -0.000873485446932999    -0.00116561967640991
31        14.1998668222426        12.6154548000933                 8.65685    0.000397505479645896    -0.00311186039278826    -0.00434912403348618
32        14.1931035005993        19.3504833212092                 8.65685    0.000415767189643378      0.0032679275638899    -0.00388773956507977
33        20.9803135329519        12.6222637346313                 8.65685   -0.000927902097180393     -0.0014180854934757    -0.00767091643196433
34        20.9735502071424         19.357292260389                 8.65685   -0.000975808637537579     0.00144326020158626    -0.00757270450075737
35        16.5622865728669        12.5689605638796                 8.65685   -0.000453146527982804   -0.000448290365062169    -0.00944841254524919
36         16.555425108682        19.4017221461408                 8.65685   -0.000495219978221995    0.000462984880400935    -0.00938956419483854
37        18.6179919240215        12.5710249097393                 8.65685    0.000839869065716098     -0.0022477111314674    -0.00622020431880705
38         18.611130457531        19.4037864905846                 8.65685    0.000891136236498077     0.00235295558214871    -0.00594738168614048
39                       0                       0                5.656854                       0                       0                       0
40                       0                       0                2.828427                       0                       0                       0
41                       0                       0                       0                       0                       0                       0
42                       2                       2                5.656854                       0                       0                       0
43                       2                       2                2.828427                       0                       0                       0
44                       2                       2                       0                       0                       0                       0
45                       4                       0                5.656854                       0                       0                       0
46                       4                       0                2.828427                       0                       0                       0
47                       4                       0                       0                       0                       0                       0
48                       6                       2                5.656854    5.85507061893838e-09    9.93396068389031e-09    2.55605359743633e-09
49                       6                       2                2.828427    1.79981896830176e-10    3.11936789073635e-10     1.5878245725099e-10
50                       6                       2                       0                       0                       0                       0
51                       8                       0                5.656854    2.47563168541996e-10    1.53904469930248e-11    1.48931584381724e-10
52                       8                       0                2.828427                       0                       0                       0
53                       8                       0                       0                       0                       0                       0
54                      10                       2                5.656854    5.15365444187411e-08    1.47489665807835e-07    3.86658227718881e-08
55                      10                       2                2.828427    1.95122835719514e-09    5.59792510015289e-09    2.85050351412921e-09
56                      10                       2                       0    4.28898306736477e-10    1.54064894048079e-09    1.19246042879976e-09
57                      12                       0                5.656854    1.28728929417887e-09     1.3699210535953e-10    1.39507979571092e-09
58                      12                       0                2.828427    8.76069434255368e-10    7.38142897794552e-10    2.02808508512861e-09
59                      12                       0                       0                       0                       0                       0
60                      14                       2                5.656854     7.7837336133172e-08      5.881953882013e-07     1.5729032973566e-07
61                      14                       2                2.828427     2.8251727856019e-09    2.07715595851938e-08    1.07557808965664e-08
62                      14                       2                       0    9.90621707293611e-10    8.74413461130783e-09    6.82027081251473e-09
63                      16                       0                5.656854    6.93739496499991e-10    2.85077286947505e-10    3.16458320854903e-09
64                      16                       0                2.828427    3.85207716321167e-10      3.131471092263e-10     7.0738025728021e-09
65                      16                       0                       0                       0                       0                       0
66                      18                       2                5.656854   -1.08033444828262e-08    8.03788622462852e-07    2.16197096497834e-07
67                      18                       2                2.828427   -3.32063953088699e-10    2.79690848276636e-08    1.45637358880045e-08
68                      18                       2                       0   -2.39075100882539e-10    1.27528083949239e-08    9.96990454717417e-09
69                      20                       0                5.656854   -1.03467021040141e-09    2.27470933142296e-10    2.92070399538324e-09
70                      20                       0                2.828427   -7.34551739905781e-10    2.32619269660045e-10    6.45507520714796e-09
71                      20                       0                       0                       0                       0                       0
72                      22                       2                5.656854   -8.44995281962708e-08    4.86460093372457e-07     1.2967932859692e-07
73                      22                       2                2.828427   -3.10000515537928e-09    1.73962975771681e-08    8.97878200419652e-09
74                      22                       2                       0   -1.26445174131237e-09    7.57530537260508e-09    5.89114600494711e-09
75                      24                       0                5.656854   -1.17966962662258e-09    7.27289535758514e-11    1.04812285223864e-09
76                      24                       0                2.828427   -8.51514794153426e-10    6.73683266020363e-10    1.56629522486158e-09
77                      24                       0                       0                       0                       0                       0
78                      26                       2                5.656854    -3.7127657969173e-08    9.37038514852504e-08     2.4434954326128e-08
79                      26                       2                2.828427   -1.46533698581033e-09    3.68770406103775e-09    1.86626102513005e-09
80                      26                       2                       0   -3.83635467299156e-10    1.12862496251989e-09     8.6835707224984e-10
81                      28                       0                5.656854   -1.76507861238064e-10    5.52374301537586e-12    9.28815527725715e-11
82                      28                       0                2.828427                       0                       0                       0
83                      28                       0                       0                       0                       0                       0
84                      30                       2                5.656854   -2.35688237337408e-09    3.69581087424132e-09      9.635002221296e-10
85                      30                       2                2.828427   -7.40296221709058e-11    1.28700161562771e-10    6.35795263953686e-11
86                      30                       2                       0                       0                       0                       0
87                       0                       4                5.656854   -1.10672702809977e-09    1.19383311355391e-09    3.62909799472951e-10
88                       0                       4                2.828427   -1.03767770916415e-09    1.15716277322191e-09    6.88339502037888e-10
89                       0                       4                       0                       0                       0                       0
90                       2                       6                5.656854     1.0232786401504e-08    1.68770099935772e-08    6.29003605131172e-09
91                       2                       6                2.828427    4.03728706344286e-10    5.95685054584213e-10    4.34765047806677e-10
92                       2                       6                       0                       0                       0                       0
93                       4                       4                5.656854    2.70771834091914e-09    3.14932514494945e-09    9.54192485847174e-10
94                       4                       4                2.828427    2.54023488596246e-09    2.93145509785772e-09    1.77963527270069e-09
95                       4                       4                       0                       0                       0                       0
96                       6                       6                5.656854    9.67202018191404e-07    1.15437554194694e-06    4.34477959400492e-07
97                       6                       6                2.828427    3.02891250246343e-08    3.59216600988085e-08    2.61155343426383e-08
98                       6                       6                       0    1.29501793659618e-08    1.53817591295222e-08    1.66240662952655e-08
99                       8                       4                5.656854    5.81418285253312e-08    1.07560700603055e-07    3.31979089504334e-08
100                       8                       4                2.828427    6.32817787800794e-08    1.16213293823689e-07    6.96150627195358e-08
101                       8                       4                       0    8.25535330952457e-10    1.53425783638996e-09     1.3796580992688e-09
102                      10                       6                5.656854    1.26905648631038e-05    2.75368184220925e-05    1.08128429228363e-05
103                      10                       6                2.828427    2.93035706171259e-07    6.24194184235844e-07    4.70763637381341e-07
104                      10                       6                       0    9.80222487063544e-08    2.04413018614561e-07    2.26104696678993e-07
105                      12                       4                5.656854    2.53887415229481e-07    9.57150014675372e-07    3.06313542181784e-07
106                      12                       4                2.828427    2.34641118760312e-07    8.73704124528064e-07    5.38577589020283e-07
107                      12                       4                       0    2.88132581749155e-09    1.08073935408711e-08    9.86317861410603e-09
108                      14                       6                5.656854    2.27955977380713e-05    0.000144347600153882    5.95088379089854e-05
109                      14                       6                2.828427    4.44099301597687e-07    2.66322070997983e-06    2.09301458728455e-06
110                      14                       6                       0    1.27863063696959e-07    7.22735786493561e-07    8.26515296679752e-07
111                      16                       4                5.656854    1.12805404439234e-07    2.22228973998572e-06    7.24926292351832e-07
112                      16                       4                2.828427    1.05007756907616e-07    1.90459038232075e-06    1.19492852633085e-06
113                      16                       4                       0    1.30156586892575e-09    2.25764616607528e-08    2.08740271574331e-08
114                      18                       6                5.656854    -2.3098070923978e-06    0.000195975273420884    8.17470855686019e-05
115                      18                       6                2.828427   -5.04842623225261e-08    3.55408328621115e-06    2.82521770583359e-06
116                      18                       6                       0   -1.57173865937342e-08    9.47073493337213e-07    1.09456655327861e-06
117                      20                       4                5.656854    -1.7565865837932e-07    2.04944141449885e-06    6.66933505887718e-07
118                      20                       4                2.828427    -1.6098807227781e-07    1.76288060588269e-06    1.10339796690842e-06
119                      20                       4                       0   -1.92386522440577e-09    2.08545984243335e-08    1.92494624886484e-08
120                      22                       6                5.656854   -2.51671213915163e-05    0.000116004448769613    4.74787236340084e-05
121                      22                       6                2.828427   -4.92642510568413e-07    2.19770573337806e-06    1.71538076569072e-06
122                      22                       6                       0   -1.41771838988225e-07    6.10075756313124e-07    6.93628812385533e-07
123                      24                       4                5.656854   -2.16054402557354e-07    6.75965413690746e-07    2.14733080294381e-07
124                      24                       4                2.828427   -2.06269592201921e-07    6.38264608945119e-07    3.90741652300481e-07
125                      24                       4                       0   -2.57295969789198e-09    8.11339940155149e-09    7.35745376026048e-09
126                      26                       6                5.656854    -8.4956757795865e-06    1.60220640653184e-05    6.21573632752676e-06
127                      26                       6                2.828427   -2.08486172359869e-07    3.85984227562508e-07     2.8817099731965e-07
128                      26                       6                       0   -7.32856074347811e-08    1.33730985253447e-07    1.46710077773416e-07
129                      28                       4                5.656854   -3.46479865412406e-08    5.74238571518839e-08    1.76121450074551e-08
130                      28                       4                2.828427   -3.93957891016467e-08    6.48260617383504e-08      3.863027418804e-08
131                      28                       4                       0   -5.38543362268492e-10    9.04819447850814e-10    8.06385615417638e-10
132                      30                       6                5.656854    -4.6441171944504e-07    5.02014156803865e-07     1.8772107762967e-07
133                      30                       6                2.828427   -1.54326354116069e-08     1.6559107865846e-08    1.20160694166815e-08
134                      30                       6                       0   -6.82023666539667e-09    7.36706650662752e-09    7.96849832914383e-09
135                       0                       8                5.656854   -7.23781575723121e-08    5.06456042708971e-08    2.43396790253969e-08
136                       0                       8                2.828427   -7.84852328077811e-08    5.48952436302446e-08    5.09432953041622e-08
137                       0                       8                       0    -1.0691705793408e-09    7.33606932494605e-10    1.01984904353517e-09
138                       2                      10                5.656854    2.82497935482451e-07    2.40808040855665e-07    1.60625952192818e-07
139                       2                      10                2.828427    9.27470552359315e-09    8.53362468646631e-09    1.09199308752506e-08
140                       2                      10                       0    4.69745839464894e-09    3.14063573853472e-09    6.29059982802814e-09
141                       4                       8                5.656854    1.89517791256597e-07    1.40014105980272e-07    6.78212164761021e-08
142                       4                       8                2.828427    1.91336244816693e-07    1.41226752596137e-07    1.31539811077515e-07
143                       4                       8                       0     2.5696017561885e-09    1.87037436118544e-09    2.61507765367746e-09
144                       6                      10                5.656854    5.56475075032337e-05    3.70583867276847e-05    2.61859401616286e-05
145                       6                      10                2.828427    1.06730310148557e-06    7.15168939406763e-07    9.55643718018747e-07
146                       6                      10                       0    3.02190485483422e-07    2.03535438218101e-07    3.92118118027983e-07
147                       8                       8                5.656854    8.44146962470361e-06    1.06931491742091e-05    5.37798648633982e-06
148                       8                       8                2.828427    5.24062761276001e-06    6.49723670131733e-06    6.26003348201332e-06
149                       8                       8                       0    4.61960620644051e-08    5.61985723261761e-08    7.91037137322555e-08
150                      10                      10                5.656854     0.00156708255821598     0.00219878004764607     0.00165835164724681
151                      10                      10                2.828427    1.55979946601208e-05    2.07845895011138e-05     2.9402686470309e-05
152                      10                      10                       0    2.56155507515433e-06    3.26132779890129e-06    6.58309477305494e-06
153                      12                       8                5.656854    5.80160341020221e-05    0.000160368134264612    8.72993401059859e-05
154                      12                       8                2.828427    2.39802613564717e-05    6.46086251050117e-05    6.61860829284492e-05
155                      12                       8                       0    1.52451919533363e-07    3.95185845789442e-07    5.82558552322396e-07
156                      14                      10                5.656854     0.00286415319600686      0.0124855635047254      0.0106363462734172
157                      14                      10                2.828427    2.21311181203314e-05    9.29106539222081e-05    0.000145003750207578
158                      14                      10                       0    2.96042033143064e-06    1.13188437930795e-05    2.44762313497596e-05
159                      16                       8                5.656854    1.77362774722877e-05    0.000411917174958035    0.000235775764131066
160                      16                       8                2.828427    8.25998414415751e-06    0.000142876683923237    0.000152896894391381
161                      16                       8                       0     5.7370059122767e-08    7.85220392295341e-07    1.19942683441162e-06
162                      18                      10                5.656854   -0.000114453238074755      0.0156622598798407      0.0137940031422808
163                      18                      10                2.828427   -1.30585065671163e-06    0.000115269017296685    0.000185101492291171
164                      18                      10                       0    -2.8847511513517e-07    1.40404628945291e-05    3.10949510159007e-05
165                      20                       8                5.656854   -3.45013582962167e-05    0.000385786064047447    0.000219651595727649
166                      20                       8                2.828427   -1.42116294306198e-05    0.000133921430499152    0.000142603756151874
167                      20                       8                       0   -9.10911308192303e-08    7.37304660559164e-07    1.12114326471899e-06
168                      22                      10                5.656854    -0.00331003369726335      0.0103383665606358     0.00862805913233729
169                      22                      10                2.828427   -2.58080504933426e-05    7.77041140327142e-05    0.000118931183841764
170                      22                      10                       0   -3.45521638151518e-06    9.74157299843328e-06    2.07718584791395e-05
171                      24                       8                5.656854   -4.59781846772438e-05    0.000105343797068447    5.61426120883445e-05
172                      24                       8                2.828427   -2.05573169040627e-05    4.56505811007879e-05    4.60461118779329e-05
173                      24                       8                       0    -1.3812763486769e-07    2.95364361905725e-07    4.30341698372177e-07
174                      26                      10                5.656854   -0.000968746878000743     0.00113234958894705    0.000838254699060846
175                      26                      10                2.828427   -1.06843727214354e-05    1.20377913546817e-05    1.67551307097066e-05
176                      26                      10                       0   -1.91374997176536e-06    2.08708676093142e-06    4.15718702027809e-06
177                      28                       8                5.656854   -4.36242045487486e-06    4.84509643202517e-06    2.41109819400812e-06
178                      28                       8                2.828427   -2.99532904305922e-06    3.27949949459543e-06    3.12930840092093e-06
179                      28                       8                       0   -2.90906022244139e-08     3.1431793592473e-08    4.38471818894252e-08
180                      30                      10                5.656854   -2.17813746009673e-05    1.30618253078974e-05    9.10307221543804e-06
181                      30                      10                2.828427   -4.83457430620054e-07    2.92598352653273e-07    3.86541255582008e-07
182                      30                      10                       0   -1.55566115457533e-07    9.49802161028167e-08    1.81751592474273e-07
183                       0                      12                5.656854   -9.89999777633468e-07    3.03761859999038e-07    3.32272895407923e-07
184                       0                      12                2.828427   -8.65934892642509e-07    2.75827312528605e-07    5.65810610474721e-07
185                       0                      12                       0   -1.06906415693434e-08    3.45515145189305e-09     1.0191632146919e-08
186                       2                      14                5.656854    1.42201090114573e-06    3.42849199604953e-07      7.727607172095e-07
187                       2                      14                2.828427    4.22160932774135e-08    1.14073996087522e-08    4.79944386831508e-08
188                       2                      14                       0    1.69867753689559e-08    5.23251836463483e-09    3.13681284140174e-08
189                       4                      12                5.656854    3.01408250433286e-06    9.73015463305536e-07      1.090399205794e-06
190                       4                      12                2.828427    2.30269455418389e-06    7.68242998501723e-07    1.60451916631085e-06
191                       4                      12                       0    2.45331778540506e-08    8.39692697246926e-09    2.50584407170273e-08
192                       6                      14                5.656854    0.000468100281960752    8.03369215806791e-05    0.000221986541788925
193                       6                      14                2.828427    6.70847435154677e-06    1.27216610855753e-06    6.06858699868519e-06
194                       6                      14                       0    1.44174104490585e-06    2.94407023422612e-07    1.89205539396177e-06
195                       8                      12                5.656854    0.000364463581888252    0.000197662240453435    0.000250274643004514
196                       8                      12                2.828427    0.000109744312105232    6.15896558522491e-05    0.000139495361366352
197                       8                      12                       0     5.5106509074942e-07     3.1511966659249e-07    9.87367117602113e-07
198                      10                      14                5.656854     0.00958720924973094     0.00634046680366926     0.00816839391457562
199                      10                      14                2.828427    0.000130628639959415    4.95203073497406e-05    0.000270468580651533
200                      10                      14                       0    1.34420063259173e-05    5.32704626070592e-06    3.71019925355192e-05
201                      12                      12                5.656854     0.00283331323239213     0.00393037985345686     0.00545399012486977