ITEM: TIMESTEP
0
ITEM: NUMBER OF ATOMS
422
ITEM: BOX BOUNDS pp pp pp
0.0000000000000000e+00 3.2000000000000000e+01
0.0000000000000000e+00 3.2000000000000000e+01
0.0000000000000000e+00 3.2000000000000000e+01
ITEM: ATOMS id xu yu zu fx fy fz
1        13.1182909229739        15.9558795448126        8.62920872913529    -0.00650437606919558     0.00156052435638693      0.0103490599630933
2        18.8459314577191        16.0076728592824          8.675296617648     0.00558769461538821   -0.000242080926626022     0.00614348514624621
3        17.4337874231909        16.0192375420389        8.68829242927394    -0.00476744879297521   -0.000746289364608522     0.00977727108116641
4         14.577647210394        15.9915271143809        8.66342517144502     0.00523335626091179    0.000354819922952877      0.0123280488970504
5        16.6958944953102        14.7445441777047        8.65166932754097     -0.0239513342777576      0.0142923235657742      0.0404199781884844
6        15.2558934576953        14.7293590755398        8.63791646682787      0.0267586238061212       0.016055465282205       0.048402645781623
7        15.2429924246938         17.193672765054        8.62750055966626      0.0260400679397844     -0.0173801312059694      0.0475491044743511
8        16.7278628700699        17.2537272752309        8.68612282864834     -0.0219500624216395     -0.0133495157126092       0.036026308322822
9        14.5611125442149        13.5918018646326        8.70020562345747      0.0274170332179836     -0.0199321987392735       0.124007972932097
10        17.4976431270418        13.5884910481965        8.69393964431047     -0.0260634061027071     -0.0213414727423496       0.132639977344451
11        14.5181015962402        18.4265836973603        8.66208804546733      0.0296344887019068      0.0243908617011551       0.147065791472281
12        17.4899438250634        18.4585845285871        8.69113371440819     -0.0259303376603032      0.0233084189803518       0.129533609605399
13        13.1191121461019        13.5542454737638        8.64865088586619     -0.0379577341148677     -0.0192288882400605       0.106835210858811
14        13.1712043997284         18.453310353889        8.70560559161474     -0.0307082699799066      0.0167956455660043      0.0900096704234652
15         18.858611190381        13.5758352577851          8.664492964213      0.0362718729172914     -0.0179288883185702       0.104523761111363
16        18.8061137972576        18.3703104963418        8.61685802576136      0.0438238808064923      0.0201291680935848       0.138069762203389
17         12.418107244643        17.1856313501439        8.64816140650401     -0.0145258237257492    -0.00932905516787081      0.0199158499736464
18        12.4500929899662        14.7921437462901        8.67771393122665     -0.0143933268290935     0.00886609154784818      0.0181072881456721
19         19.572093344822        14.8038992604018        8.68232214812977      0.0133600946776985     0.00843599998214818      0.0161049478762689
20        19.5299900256141        17.1872692935454        8.64265205058588      0.0165216451211172     -0.0103469098001607      0.0234991004084404
21        20.9843691399097         14.853669203108        8.68608411728562     -0.0233202231910607      0.0196848455474755      0.0504076163377657
22        20.9595746880301        17.1650715553552        8.66363332577939     -0.0254962919809715     -0.0205786194742634       0.055146856633875
23        11.0167882930695         14.810621449401        8.65301261990843      0.0273721186471871      0.0219281968836701      0.0619280765827258
24        11.0069233099338         17.136953269062        8.64549129678838      0.0266672768910118     -0.0229429410769173      0.0608215039413145
25        21.5954763994339        16.0007470168122        8.66559993869445    -0.00145758125899114   -1.39202018415697e-05    -0.00248132283016564
26        10.4013047909523        15.9953641951451        8.67146421648068     0.00141689040971028    8.47389816506988e-05     -0.0027216194185349
27        21.5816329822678        18.1583590773701        8.62928693644375     -0.0131372615048611     0.00496296496450758      0.0754537222698812
28        21.5778273970625        13.7623466800571         8.6210751103624     -0.0133647854921099    -0.00751169830877377       0.075979157336066
29        10.3478618429438        18.1626725795127        8.64489709221637      0.0106550306567361     0.00497629545471758      0.0736902817091331
30        10.3883803846308        13.8109843111001        8.68100939437035      0.0101226546787813    -0.00491810169702169      0.0612961588148029
31        12.5581773195688        12.5737652974195         8.6151604973262   -0.000574042267549524   -0.000561610478250162    -0.00924422023072435
32        12.5458784358461         19.303258256456        8.60962493524679   -0.000831679450849131    0.000687466461513104    -0.00884811641197251
33        19.4252024647195        12.6671526663989        8.70173893176763    0.000501282701853168   -0.000430357092894899    -0.00931795715532889
34        19.3335151099524        19.3172571631989        8.61681490280997    0.000947612545829687    0.000929048244145208     -0.0084484506095617
35        14.9775494455009        12.5842234365135        8.67211287263397    0.000792090316956738    -0.00134406630699769    -0.00786622759871196
36        14.9311893404881         19.377486377947        8.63261423180613     0.00109943007240984     0.00182694984580312    -0.00694258836790075
37        17.0482664256419        12.6012994113597        8.68712450162038   -0.000779524814442047    -0.00134749806026253    -0.00779155281249143
38        17.0463773283481        19.4390333614017        8.69209687081714   -0.000672742438467102     0.00123052383584319    -0.00807715772643828
39                       0                       0                5.656854                       0                       0                       0
40                       0                       0                2.828427                       0                       0                       0
41                       0                       0                       0                       0                       0                       0
42                       2                       2                5.656854    5.24514042468414e-10    7.38524821537257e-10       1.89096333049e-10
43                       2                       2                2.828427                       0                       0                       0
44                       2                       2                       0                       0                       0                       0
45                       4                       0                5.656854                       0                       0                       0
46                       4                       0                2.828427                       0                       0                       0
47                       4                       0                       0                       0                       0                       0
48                       6                       2                5.656854    1.79086247237159e-08     3.5885668437064e-08    9.28210621624061e-09
49                       6                       2                2.828427    6.31290843104088e-10    1.30788002654488e-09    6.59697807555012e-10
50                       6                       2                       0                       0                       0                       0
51                       8                       0                5.656854    6.78382694051156e-10    7.65605150751044e-11    4.73491945669372e-10
52                       8                       0                2.828427    4.06757584767777e-10     8.3069399370377e-11    5.16805035600539e-10
53                       8                       0                       0                       0                       0                       0
54                      10                       2                5.656854    7.72909336744907e-08    3.01132785385243e-07    7.96812906095803e-08
55                      10                       2                2.828427     2.7930711519189e-09    1.09234447350306e-08    5.61447546814096e-09
56                      10                       2                       0    9.95619927094041e-10    4.26244382888947e-09    3.31561565295401e-09
57                      12                       0                5.656854    1.32892369525197e-09    2.03536756556431e-10    2.19159731331506e-09
58                      12                       0                2.828427    1.47153885891031e-09   -7.73779161538199e-10    4.73986738024918e-09
59                      12                       0                       0                       0                       0                       0
60                      14                       2                5.656854    4.28253745293376e-08    7.24060915581512e-07    1.94711131481924e-07
61                      14                       2                2.828427    1.45070729908377e-09    2.50489655471848e-08    1.30412195849458e-08
62                      14                       2                       0    6.89527789044151e-10    1.06069438427614e-08    8.32116437582423e-09
63                      16                       0                5.656854   -3.05875092601711e-11    9.36225462573704e-13    3.25090266995544e-09
64                      16                       0                2.828427   -2.66565510834194e-11   -9.03660223725029e-11    7.05970828629681e-09
65                      16                       0                       0                       0                       0                       0
66                      18                       2                5.656854   -4.72769349641662e-08    7.05574583099185e-07    1.90186053273863e-07
67                      18                       2                2.828427   -1.61684317209081e-09    2.44268709366152e-08    1.27128370866596e-08
68                      18                       2                       0    -7.7695996631061e-10    1.02886388780757e-08     8.0654499717725e-09
69                      20                       0                5.656854   -1.29878557550716e-09    9.59289251081851e-11    2.12882220880425e-09
70                      20                       0                2.828427   -1.47315408034965e-09   -1.12608531175983e-09    4.55812644871801e-09
71                      20                       0                       0                       0                       0                       0
72                      22                       2                5.656854   -7.34617830179055e-08    2.87542450661631e-07    7.62344942520291e-08
73                      22                       2                2.828427   -2.65058258742235e-09    1.04428200025844e-08    5.35587678160393e-09
74                      22                       2                       0   -9.16906739069016e-10    4.03548858484888e-09    3.12515571472079e-09
75                      24                       0                5.656854   -6.46865660590343e-10    6.77436538189055e-11    4.51471873962252e-10
76                      24                       0                2.828427   -3.66233265272092e-10    6.13924703270163e-12    4.62208210338642e-10
77                      24                       0                       0                       0                       0                       0
78                      26                       2                5.656854   -1.73176494096629e-08    3.51620546971948e-08    9.06844362670563e-09
79                      26                       2                2.828427   -6.03695821691396e-10    1.27481346439027e-09    6.40404667836161e-10
80                      26                       2                       0                       0                       0                       0
81                      28                       0                5.656854                       0                       0                       0
82                      28                       0                2.828427                       0                       0                       0
83                      28                       0                       0                       0                       0                       0
84                      30                       2                5.656854   -5.53462792813641e-10    7.72962221329461e-10    1.94793691794695e-10
85                      30                       2                2.828427                       0                       0                       0
86                      30                       2                       0                       0                       0                       0
87                       0                       4                5.656854   -5.67397127985678e-12    2.97312033398787e-10     9.0950166417982e-11
88                       0                       4                2.828427                       0                       0                       0
89                       0                       4                       0                       0                       0                       0
90                       2                       6                5.656854    9.70759475533775e-08    8.87827053226029e-08    3.31411347381608e-08
91                       2                       6                2.828427    3.63196947566149e-09    3.27727160261269e-09    2.37350663460173e-09
92                       2                       6                       0    1.01463569154865e-09      9.447954318678e-10    1.05003130119557e-09
93                       4                       4                5.656854    1.10468101484924e-08    1.49672102499029e-08    4.57701423252199e-09
94                       4                       4                2.828427    1.34030351440306e-08    1.83435065373761e-08     1.0838164538304e-08
95                       4                       4                       0    1.46134681124787e-10    1.99873656503967e-10    1.82381781468811e-10
96                       6                       6                5.656854    3.28011357261895e-06    4.80456539066957e-06    1.83906723071476e-06
97                       6                       6                2.828427    9.07110111027222e-08    1.31048193474274e-07    9.66673043904302e-08
98                       6                       6                       0    3.56215363309677e-08    5.10042109239949e-08    5.55641016160378e-08
99                       8                       4                5.656854    1.30600656343766e-07    3.04076153501586e-07    9.54447274733286e-08
100                       8                       4                2.828427    1.32784467635506e-07    3.06458705157838e-07    1.85906385548976e-07
101                       8                       4                       0    1.78980401077388e-09    4.18524329614451e-09    3.76622195590914e-09
102                      10                       6                5.656854    2.19189916503612e-05    6.51396361386918e-05    2.62591569200795e-05
103                      10                       6                2.828427    4.51589020491057e-07    1.32218455690646e-06    1.01964126564003e-06
104                      10                       6                       0    1.35757777184699e-07    3.89873170241665e-07    4.38914239259523e-07
105                      12                       4                5.656854    2.50616441560276e-07    1.56238806311228e-06    5.05837133120325e-07
106                      12                       4                2.828427    2.24964407588089e-07    1.36049304493181e-06     8.4793340374217e-07
107                      12                       4                       0    2.79950185662267e-09    1.64256801081169e-08    1.50924282491062e-08
108                      14                       6                5.656854    1.01871332777849e-05    0.000178999940182918    7.45299935384401e-05
109                      14                       6                2.828427    2.14239715687474e-07    3.23499306214477e-06    2.56447851427553e-06
110                      14                       6                       0    6.62772464556973e-08     8.6133555945571e-07    9.92247960961137e-07
111                      16                       4                5.656854   -1.16119714939136e-08    2.25419451754092e-06    7.38920004788258e-07
112                      16                       4                2.828427   -1.06514387455362e-08    1.92926794182148e-06    1.21271032923109e-06
113                      16                       4                       0   -1.20982259442585e-10    2.29227315217601e-08    2.12108421753599e-08
114                      18                       6                5.656854   -1.16953239790518e-05    0.000173504169061369    7.23001322859539e-05
115                      18                       6                2.828427   -2.40778550985524e-07    3.14916176945191e-06     2.4913825776181e-06
116                      18                       6                       0    -7.2817919144645e-08    8.43573148438393e-07    9.69690477696983e-07
117                      20                       4                5.656854   -2.44852046227006e-07    1.48987379238884e-06    4.83285974953655e-07
118                      20                       4                2.828427   -2.20764003060884e-07    1.30391538282792e-06    8.10690166736928e-07
119                      20                       4                       0   -2.75416041514435e-09    1.58521058785059e-08    1.45226853607915e-08
120                      22                       6                5.656854   -2.05303807431686e-05    6.23856255380127e-05    2.50755269305512e-05
121                      22                       6                2.828427   -4.26947697734521e-07     1.2750063870716e-06    9.77782856477509e-07
122                      22                       6                       0    -1.2987291939043e-07    3.78577376930589e-07    4.24133925217627e-07
123                      24                       4                5.656854   -1.24563253244329e-07    2.95361670305686e-07    9.24825765256067e-08
124                      24                       4                2.828427    -1.2612918220673e-07    2.97292282972653e-07    1.79660464687321e-07
125                      24                       4                       0   -1.71483066768422e-09    4.08653533919955e-09    3.66032560024141e-09
126                      26                       6                5.656854   -3.23900664663507e-06    4.79400368930774e-06    1.82495893784176e-06
127                      26                       6                2.828427   -8.92805330593073e-08    1.30616791459922e-07    9.60313572805114e-08
128                      26                       6                       0    -3.4120640588129e-08    4.91588698023717e-08    5.38400779273997e-08
129                      28                       4                5.656854   -1.09508322601788e-08    1.49293895506395e-08     4.5391096616707e-09
130                      28                       4                2.828427   -1.32604024394763e-08    1.83076323138268e-08    1.07770855496904e-08
131                      28                       4                       0   -1.48043717377676e-10    2.05404616010849e-10    1.86102917141955e-10
132                      30                       6                5.656854   -9.70660244342765e-08    8.86576834465346e-08    3.29029009080118e-08
133                      30                       6                2.828427   -3.64366938259541e-09     3.2905860029959e-09    2.37780968899408e-09
134                      30                       6                       0   -1.08935939376609e-09     1.0040147206957e-09    1.11508628457232e-09
135                       0                       8                5.656854    7.62941562135799e-11    1.25811261869239e-08    5.98335129561457e-09
136                       0                       8                2.828427   -3.77506989109885e-11    1.42724954637068e-08    1.33691197690162e-08
137                       0                       8                       0   -6.65654788835807e-12    1.45150969112338e-10    2.17003957539435e-10
138                       2                      10                5.656854    3.16188053460294e-06    1.60879991879288e-06    1.09556655811303e-06
139                       2                      10                2.828427    8.96913346916547e-08    4.61722655526342e-08    5.98308956334917e-08
140                       2                      10                       0    3.63526747186699e-08    1.87868463134723e-08    3.55684664592757e-08
141                       4                       8                5.656854    1.00406309737677e-06    8.89221206834249e-07    4.37242336809175e-07
142                       4                       8                2.828427     8.3958599280242e-07    7.40280929588349e-07    6.97758775994019e-07
143                       4                       8                       0    9.84019212058128e-09    8.63227986826885e-09    1.19495147156158e-08
144                       6                      10                5.656854    0.000274024917352616    0.000233223105889224    0.000168722399272368
145                       6                      10                2.828427    3.93559824009811e-06    3.32204714033302e-06    4.52062445530669e-06
146                       6                      10                       0    8.73161421953974e-07    7.30977070641054e-07    1.42773614898413e-06
147                       8                       8                5.656854    2.34826433684956e-05    3.88512762976766e-05    2.01118612179698e-05
148                       8                       8                2.828427    1.22146735264332e-05    1.96064395333188e-05    1.93500214653498e-05
149                       8                       8                       0    9.22817466805479e-08    1.44138256286022e-07     2.0661408803496e-07
150                      10                      10                5.656854     0.00291063368787112      0.0057157450318128     0.00456739068474975
151                      10                      10                2.828427    2.44083959562443e-05    4.62098975381162e-05    6.81789506377933e-05
152                      10                      10                       0    3.50140027623288e-06    6.30635862842577e-06    1.31006101326549e-05
153                      12                       8                5.656854    6.04376968196025e-05    0.000291282891699524    0.000164075092000023
154                      12                       8                2.828427    2.28678620021169e-05    0.000104028447342604    0.000109532653551675
155                      12                       8                       0    1.37907836775362e-07    5.86199193303384e-07    8.81524613064924e-07
156                      14                      10                5.656854    0.000821939641727872      0.0148795319696254      0.0130269754848492
157                      14                      10                2.828427    8.01534461632158e-06     0.00010891013750575    0.000173344912277952
158                      14                      10                       0    1.36605480103979e-06    1.31253136850445e-05    2.87807031206854e-05
159                      16                       8                5.656854   -2.59460974863068e-06    0.000405403869075084    0.000233312650279404
160                      16                       8                2.828427   -9.88636349066436e-07    0.000142443211412762    0.000152582025264338
161                      16                       8                       0   -5.26684077540449e-09    7.91927536823421e-07    1.20917290236636e-06
162                      18                      10                5.656854   -0.000962495004364095      0.0146691078518366      0.0128175841774686
163                      18                      10                2.828427   -9.16799837434043e-06    0.000106827731644708    0.000169201879494213
164                      18                      10                       0   -1.48777928277696e-06     1.2931052369378e-05    2.82609946316917e-05
165                      20                       8                5.656854   -5.78235030337132e-05    0.000276093220369594    0.000154801302619232
166                      20                       8                2.828427   -2.21177924500545e-05    0.000100200948947366    0.000104777145074164
167                      20                       8                       0   -1.34933737153426e-07     5.7074989660877e-07    8.53832194816365e-07
168                      22                      10                5.656854      -0.002760605309682     0.00564040289000038     0.00446654437791313
169                      22                      10                2.828427   -2.33461209867761e-05    4.56408979312399e-05    6.68689712635572e-05
170                      22                      10                       0   -3.38563626754817e-06    6.21156669133243e-06     1.2847868910475e-05
171                      24                       8                5.656854   -2.29421101058697e-05    3.87990675917176e-05    1.99542583279771e-05
172                      24                       8                2.828427   -1.19068570719032e-05    1.95089387661501e-05    1.91670939452488e-05
173                      24                       8                       0   -8.99144090603162e-08    1.42733053576803e-07    2.03938750662372e-07
174                      26                      10                5.656854   -0.000276258022799559    0.000234011589301593     0.00016904956217326
175                      26                      10                2.828427   -3.94996859494295e-06     3.3312720100532e-06    4.54614750852072e-06
176                      26                      10                       0   -8.68681191144651e-07    7.28390453955141e-07    1.42668377891623e-06
177                      28                       8                5.656854   -1.00673361696563e-06    8.89528151557895e-07    4.35451716054889e-07
178                      28                       8                2.828427   -8.42969699686691e-07    7.42862808327876e-07    7.00276278343624e-07
179                      28                       8                       0   -9.84060751885746e-09    8.64362197797192e-09     1.1977357069527e-08
180                      30                      10                5.656854   -3.13805003692012e-06     1.5846696231324e-06    1.07744816317942e-06
181                      30                      10                2.828427   -8.95362459352148e-08    4.57497533638969e-08    5.95096284362255e-08
182                      30                      10                       0   -3.63396551115168e-08    1.86674765642749e-08    3.55079549192001e-08
183                       0                      12                5.656854    2.30806997548186e-09    6.05487526538681e-08    6.34581386195774e-08
184                       0                      12                2.828427     1.8058749505224e-09    6.80242630457201e-08    1.35324512810701e-07
185                       0                      12                       0    1.44041873802422e-11    1.01630144038104e-09    2.87975059407976e-09
186                       2                      14                5.656854    1.87817485489716e-05    2.76530531529336e-06    6.50981387470957e-06
187                       2                      14                2.828427    4.55313025508924e-07    7.10555282882431e-08    3.04833750745475e-07
188                       2                      14                       0    1.58700140067581e-07    2.58900590435674e-08    1.55079100490674e-07
189                       4                      12                5.656854    2.29511835724291e-05    8.79704495359912e-06    1.02496562242349e-05
190                       4                      12                2.828427     1.2734842775419e-05    5.07179737370827e-06    1.08307916315638e-05
191                       4                      12                       0    1.01657602450237e-07    4.17899767167412e-08    1.25653032587107e-07
192                       6                      14                5.656854     0.00310987593425516    0.000661037415773675     0.00195774915170225
193                       6                      14                2.828427    2.92004431538407e-05    7.00387902762581e-06    3.44658211782866e-05
194                       6                      14                       0    4.49200547621391e-06    1.16159079901642e-06    7.54786100059181e-06
195                       8                      12                5.656854     0.00130122367639668     0.00101704242822484     0.00132418791354738
196                       8                      12                2.828427    0.000283954731191223    0.000219592289840345    0.000511045725582315
197                       8                      12                       0    1.12920828409235e-06    8.62193418748173e-07    2.75991701577641e-06
198                      10                      14                5.656854     -0.0190695816331958    -0.00889541905925262      -0.129957389807312
199                      10                      14                2.828427    0.000182104609294669    0.000111344184928131    0.000633604966933294
200                      10                      14                       0    1.71611418394564e-05    1.02234728174049e-05    7.34841878834484e-05
201                      12                      12                5.656854        0.00170103701899     0.00545035505345301     0.00750940070191947