ITEM: TIMESTEP
0
ITEM: NUMBER OF ATOMS
422
ITEM: BOX BOUNDS pp pp pp
0.0000000000000000e+00 3.2000000000000000e+01
0.0000000000000000e+00 3.2000000000000000e+01
0.0000000000000000e+00 3.2000000000000000e+01
ITEM: ATOMS id xu yu zu fx fy fz
1        13.1459321938386        15.9835208156773                 9.95685    0.000194541428237736   -2.81542515302153e-06       -0.01150671998754
2        18.8274848400711        15.9892262416344                 9.95685   -0.000192105812065526   -1.77978040233366e-06     -0.0115078325157455
3         17.402344993917         15.987795112765                 9.95685    0.000158273570778104   -1.45430779836418e-06     -0.0115147249437635
4         14.571072038949        15.9849519429358                 9.95685    -0.00015303275478758   -1.72071825483832e-06     -0.0115152396632693
5        16.7010751677692        14.7497248501637                 9.95685    7.36753651849676e-05   -0.000136071293055025     -0.0113304449249068
6        15.2748269908674        14.7482926087119                 9.95685   -7.41626908472381e-05   -0.000132898717228374     -0.0113183116450574
7        15.2723418650276        17.2230222053877                 9.95685   -7.78869900113062e-05    0.000135533817424948      -0.011323279596049
8        16.6985900414216        17.2244544465825                 9.95685    7.68104084985943e-05    0.000139079362807738     -0.0113367685548401
9        14.5177569207574        13.5484462411751                 9.95685   -1.14206312778164e-05    1.42037836205861e-05     -0.0107030781497207
10        17.4605534827313        13.5514014038861                 9.95685    1.20373495609033e-05    1.58893314984995e-05     -0.0107152065047969
11        14.5128635507729         18.421345651893                 9.95685   -8.80946797989509e-06   -1.25385324300536e-05     -0.0106841575813583
12        17.4556601106552        18.4243008141789                 9.95685    1.02067603024042e-05   -1.51771146169988e-05     -0.0107058790358243
13        13.1273112602358        13.5624445878976                 9.95685    2.67377780078962e-05    4.73617793600407e-05     -0.0109553564625731
14        13.1224488081137        18.4045547622743                 9.95685    2.36517887773827e-05   -4.43848260225217e-05     -0.0109477377735938
15         18.850968226168        13.5681922935721                 9.95685   -2.50784518310538e-05    4.45371484156518e-05     -0.0109360883176049
16        18.8461057714963        18.4103024705805                 9.95685   -2.26855426276634e-05   -4.19017603241965e-05     -0.0109244413309019
17         12.426795838139        17.1943199436399                 9.95685    6.06465430980485e-05    0.000171144983362759     -0.0114447868968195
18        12.4292290587396        14.7712798150634                 9.95685     5.7973051043802e-05   -0.000167214734655705     -0.0114421044166054
19        19.5466211966922        14.7784271122721                 9.95685   -6.09717734433159e-05   -0.000165924414303322      -0.011434898508184
20        19.5441879750283        17.2014672429596                 9.95685   -6.30132350332714e-05      0.0001678636748359     -0.0114354891670855
21        20.9551350226241        14.8244350858224                 9.95685    8.47988486719988e-05   -0.000107772523625794     -0.0112215420982635
22        20.9527913622507        17.1582882295758                 9.95685    8.74271872937183e-05    0.000109369958658329     -0.0112292443832698
23        11.0206256731611        14.8144588294926                 9.95685   -8.26620985840755e-05   -0.000103416673520593     -0.0112048198882082
24        11.0182820131454        17.1483119722736                 9.95685   -8.81715061019742e-05    0.000105718888957976      -0.011218289241862
25        21.5867264607395        15.9919970781177                 9.95685    9.29344268951252e-05   -1.54069482246841e-06    -0.00710755747289913
26        10.3866905744716        15.9807499786644                 9.95685   -8.76803748770441e-05   -3.68718321485469e-06     -0.0071095801089356
27         21.609196045824        18.1859221409264                 9.95685     5.5793534427643e-05   -2.87641221121571e-05    -0.00691150956806752
28        21.6136022867001        13.7981215696947                 9.95685    5.53609355769473e-05    3.11379031272979e-05    -0.00691192944981042
29        10.3598147507275        18.1746254872963                 9.95685   -5.16086978321784e-05   -2.67990809907583e-05    -0.00690685842851045
30        10.3642209902605        13.7868249167297                 9.95685   -5.25264781572703e-05    3.26243909179815e-05    -0.00690987410182247
31        12.5998668222426        12.6154548000933                 9.95685    9.29309935635091e-05    9.44082497471367e-05    -0.00402220170479842
32        12.5931035005993        19.3504833212092                 9.95685    9.24925554441958e-05   -9.76491811707336e-05    -0.00402570493817802
33        19.3803135329519        12.6222637346313                 9.95685   -9.50147836819764e-05    9.52506217024202e-05    -0.00402550864961397
34        19.3735502071424         19.357292260389                 9.95685   -9.58558643277546e-05   -9.72886225053178e-05    -0.00402894557104565
35        14.9622865728669        12.5689605638796                 9.95685   -0.000113372354650419    9.31773516585063e-05    -0.00407847964070822
36         14.955425108682        19.4017221461408                 9.95685   -0.000113532641704525   -9.65239492546156e-05    -0.00408278948857337
37        17.0179919240215        12.5710249097393                 9.95685    0.000113585610476233    9.32460060107604e-05    -0.00407578600417321
38         17.011130457531        19.4037864905846                 9.95685    0.000113848584465723   -9.60045200347871e-05    -0.00407761668807713
39                       0                       0                5.656854                       0                       0                       0
40                       0                       0                2.828427                       0                       0                       0
41                       0                       0                       0                       0                       0                       0
42                       2                       2                5.656854                       0                       0                       0
43                       2                       2                2.828427                       0                       0                       0
44                       2                       2                       0                       0                       0                       0
45                       4                       0                5.656854                       0                       0                       0
46                       4                       0                2.828427                       0                       0                       0
47                       4                       0                       0                       0                       0                       0
48                       6                       2                5.656854    1.01550129847685e-08    2.03404385249463e-08    7.54040600409934e-09
49                       6                       2                2.828427    1.58043541757393e-10    3.45172509630715e-10    2.16778174681779e-10
50                       6                       2                       0                       0                       0                       0
51                       8                       0                5.656854    2.56673535359226e-10    7.42279887012516e-11    2.88561918878304e-10
52                       8                       0                2.828427                       0                       0                       0
53                       8                       0                       0                       0                       0                       0
54                      10                       2                5.656854    4.14161840200444e-08    1.61725079742247e-07    6.12135396388895e-08
55                      10                       2                2.828427    9.78236359702602e-10    3.93462808715631e-09    2.46889802115629e-09
56                      10                       2                       0    8.98337856108516e-11    3.66798207706143e-10    3.44041287271725e-10
57                      12                       0                5.656854    6.49598072538582e-10     1.1522517657138e-10    1.73371697939891e-09
58                      12                       0                2.828427    2.74631546184559e-10    4.44267392307187e-11    1.26000593673665e-09
59                      12                       0                       0                       0                       0                       0
60                      14                       2                5.656854    2.57047089261017e-08     3.9303658577103e-07    1.50842089941868e-07
61                      14                       2                2.828427    6.11575681844892e-10    9.35313635151515e-09    5.93349442849937e-09
62                      14                       2                       0    8.21788944992311e-11     1.3385820165835e-09    1.25903966377351e-09
63                      16                       0                5.656854   -4.17294746740101e-12     1.5835083001154e-10    2.74471369421405e-09
64                      16                       0                2.828427   -2.25173422936368e-12    7.25245673162542e-11    2.37028569828713e-09
65                      16                       0                       0                       0                       0                       0
66                      18                       2                5.656854   -2.63281746573129e-08    3.90891862341979e-07    1.49985963081029e-07
67                      18                       2                2.828427   -6.26684896221564e-10    9.30727219795735e-09    5.90312592077661e-09
68                      18                       2                       0   -8.43672998982175e-11    1.33297945313731e-09    1.25345208092313e-09
69                      20                       0                5.656854   -6.54085009116318e-10    8.48354608627381e-11    1.72511728127533e-09
70                      20                       0                2.828427   -2.77394949005946e-10    3.28370639481581e-11     1.2543036902863e-09
71                      20                       0                       0                       0                       0                       0
72                      22                       2                5.656854   -4.10538000281141e-08    1.59142883135294e-07    6.02051885371681e-08
73                      22                       2                2.828427   -9.71259151703237e-10    3.87767789597446e-09    2.43189042797116e-09
74                      22                       2                       0   -8.93363614838158e-11    3.62239682003907e-10    3.39547790175988e-10
75                      24                       0                5.656854   -2.25284316919592e-10    1.11437731993188e-11     2.6690730049462e-10
76                      24                       0                2.828427                       0                       0                       0
77                      24                       0                       0                       0                       0                       0
78                      26                       2                5.656854   -9.93855149160472e-09    1.98374650403873e-08    7.34912160205692e-09
79                      26                       2                2.828427   -1.54981701304975e-10    3.37271189584669e-10    2.11650936648539e-10
80                      26                       2                       0                       0                       0                       0
81                      28                       0                5.656854                       0                       0                       0
82                      28                       0                2.828427                       0                       0                       0
83                      28                       0                       0                       0                       0                       0
84                      30                       2                5.656854                       0                       0                       0
85                      30                       2                2.828427                       0                       0                       0
86                      30                       2                       0                       0                       0                       0
87                       0                       4                5.656854    3.28862769247071e-12    1.84250705819249e-10    8.09075976170826e-11
88                       0                       4                2.828427                       0                       0                       0
89                       0                       4                       0                       0                       0                       0
90                       2                       6                5.656854    5.44725273430378e-08    4.97055450291204e-08    2.64410387702915e-08
91                       2                       6                2.828427    1.23003372522922e-09    1.14276577817284e-09    1.00905546337557e-09
92                       2                       6                       0                       0                       0                       0
93                       4                       4                5.656854    6.24691623158057e-09    8.50784184676994e-09     3.7124262111761e-09
94                       4                       4                2.828427    4.01124857579397e-09    5.70911880836161e-09     4.1544095847327e-09
95                       4                       4                       0                       0                       0                       0
96                       6                       6                5.656854    1.58621252783565e-06    2.33556028743092e-06    1.27317318271334e-06
97                       6                       6                2.828427    2.92237717438534e-08    4.24215056534924e-08    3.80083398302153e-08
98                       6                       6                       0    8.00906703828365e-09    1.17126554023362e-08    1.46970860628246e-08
99                       8                       4                5.656854    6.57712382358201e-08     1.5406163896833e-07    6.89541307700984e-08
100                       8                       4                2.828427    4.43122826358409e-08    1.03215148817224e-07    7.63022352106444e-08
101                       8                       4                       0    3.21816400468316e-10    7.39009313748043e-10     7.9038530405514e-10
102                      10                       6                5.656854    9.17385908359329e-06    2.71729424163947e-05     1.5550237497528e-05
103                      10                       6                2.828427    1.26371220625371e-07    3.66250007341355e-07    3.41463682898904e-07
104                      10                       6                       0    2.94749532474366e-08    8.42268501640906e-08    1.08261017686543e-07
105                      12                       4                5.656854    1.25888026361696e-07    7.46238521698099e-07    3.44536282866203e-07
106                      12                       4                2.828427    7.56720723498545e-08    4.34477257124052e-07    3.29194722777923e-07
107                      12                       4                       0     5.6880936234256e-10    3.63942959638964e-09    3.87023439117157e-09
108                      14                       6                5.656854    5.09383777442297e-06    7.29634372269855e-05    4.31257960845469e-05
109                      14                       6                2.828427    6.95217773347203e-08    8.71487295118238e-07    8.35989565158432e-07
110                      14                       6                       0    1.59959744089531e-08    1.81518235112149e-07    2.39560785406448e-07
111                      16                       4                5.656854    -1.1561648495812e-09    1.10825473006712e-06    5.16852015944932e-07
112                      16                       4                2.828427   -6.59480096775451e-10      6.288717618725e-07    4.81319305461813e-07
113                      16                       4                       0   -5.49586596336709e-12    5.11857507928147e-09    5.50870302789924e-09
114                      18                       6                5.656854   -5.23360091564736e-06    7.25556126905365e-05    4.28667890625328e-05
115                      18                       6                2.828427   -7.12165177838087e-08    8.67400353008489e-07    8.31756299890394e-07
116                      18                       6                       0   -1.63589439187293e-08    1.80805519618453e-07    2.38537625366827e-07
117                      20                       4                5.656854   -1.26041165610544e-07    7.37776027738323e-07    3.40451655665679e-07
118                      20                       4                2.828427   -7.58419904999984e-08    4.30176512596799e-07    3.25777085424527e-07
119                      20                       4                       0   -5.71804452592297e-10    3.60896969543332e-09    3.83580643536805e-09
120                      22                       6                5.656854   -9.07617349579827e-06    2.66920810664336e-05    1.52608157929367e-05
121                      22                       6                2.828427   -1.25355933425478e-07    3.60780392336427e-07    3.36079297501506e-07
122                      22                       6                       0   -2.93070590268681e-08    8.31722173789804e-08    1.06820161540207e-07
123                      24                       4                5.656854   -6.46231002731024e-08    1.50572719847656e-07    6.73573733476799e-08
124                      24                       4                2.828427   -4.36570356561757e-08     1.0120607712998e-07    7.47616346156099e-08
125                      24                       4                       0   -3.17924948211094e-10    7.26751590670937e-10    7.76641268770104e-10
126                      26                       6                5.656854   -1.54726267122148e-06    2.27063022719102e-06     1.2364401980804e-06
127                      26                       6                2.828427    -2.8606942590671e-08    4.13918299273609e-08    3.70481926939534e-08
128                      26                       6                       0   -7.86795073110398e-09    1.14697241858815e-08    1.43772471321306e-08
129                      28                       4                5.656854   -6.07656516260878e-09    8.25530984281563e-09     3.5990965419299e-09
130                      28                       4                2.828427   -3.91166784685502e-09    5.55402796395529e-09    4.03767056122376e-09
131                      28                       4                       0                       0                       0                       0
132                      30                       6                5.656854   -5.27283958147242e-08    4.80392132631538e-08    2.55256434680139e-08
133                      30                       6                2.828427   -1.19431767692368e-09     1.1079090223707e-09    9.77128085887812e-10
134                      30                       6                       0                       0                       0                       0
135                       0                       8                5.656854     2.1449458480994e-10    7.08594326607069e-09     4.8519114537933e-09
136                       0                       8                2.828427    1.48048004680167e-10    5.46458258574363e-09    6.17619753468812e-09
137                       0                       8                       0                       0                       0                       0
138                       2                      10                5.656854    1.58409023918595e-06      8.084380308882e-07    7.84234299891132e-07
139                       2                      10                2.828427    3.00083103991523e-08    1.54949494765072e-08    2.43945814220742e-08
140                       2                      10                       0    7.44560961504201e-09    3.76077614398854e-09    8.57439207751579e-09
141                       4                       8                5.656854    4.82417266726111e-07    4.28211985779834e-07    2.99837791081313e-07
142                       4                       8                2.828427    2.67607749629906e-07    2.36441405453307e-07    2.70909071865334e-07
143                       4                       8                       0    2.20321892048193e-09     1.9256737440832e-09    3.11067491266565e-09
144                       6                      10                5.656854    0.000100757155058092    8.58313319337207e-05    8.78613984338938e-05
145                       6                      10                2.828427    9.59730588129485e-07    8.10269037264599e-07       1.32939265608e-06
146                       6                      10                       0    1.72094519345468e-07    1.44424281923414e-07    3.20888782947316e-07
147                       8                       8                5.656854    8.87897844966035e-06    1.47359662942288e-05    1.08038387493489e-05
148                       8                       8                2.828427    3.07073386289323e-06    4.91861029002821e-06    5.85890575473308e-06
149                       8                       8                       0    1.86459140729912e-08    2.90337736337429e-08    4.73998468933465e-08
150                      10                      10                5.656854     0.00081047753426011     0.00160632642498101     0.00179007599453704
151                      10                      10                2.828427    4.68505759759268e-06    8.73231159298763e-06    1.53120595065415e-05
152                      10                      10                       0    5.96824568765148e-07    1.05555382582339e-06    2.46778879032284e-06
153                      12                       8                5.656854    2.03527016974436e-05    9.24860287643277e-05    7.31657911907856e-05
154                      12                       8                2.828427    5.29389767778769e-06    2.27093561403023e-05    2.86438246403443e-05
155                      12                       8                       0    2.66647812484594e-08    1.08000576409176e-07    1.83835835746246e-07
156                      14                      10                5.656854    0.000299975245809938     0.00420436172816382     0.00516153822239938
157                      14                      10                2.828427    1.93698318683087e-06    1.94483583300222e-05    3.66040866479993e-05
158                      14                      10                       0    2.68464029847164e-07    2.13611977290231e-06    5.25309407244482e-06
159                      16                       8                5.656854   -1.50232680347323e-07    0.000133476125658346    0.000108091751638208
160                      16                       8                2.828427   -3.79554933811575e-08    3.18003465139305e-05    4.09795459159288e-05
161                      16                       8                       0   -1.85602579006426e-10    1.48128454638614e-07    2.56700809002189e-07
162                      18                      10                5.656854   -0.000311868438425022     0.00418884819217154     0.00513742627974272
163                      18                      10                2.828427   -1.99063222926269e-06    1.93884674837964e-05    3.64617041228403e-05
164                      18                      10                       0    -2.7438377490405e-07    2.13042226581395e-06    5.23559296648272e-06
165                      20                       8                5.656854   -2.03812442730666e-05    9.14201833488415e-05    7.22437141677688e-05
166                      20                       8                2.828427   -5.30965934100245e-06    2.25030130995047e-05    2.83567929868035e-05
167                      20                       8                       0   -2.67708311466446e-08    1.07199824406399e-07    1.82321901418156e-07
168                      22                      10                5.656854   -0.000802328475607254     0.00157941653621234      0.0017563361054749
169                      22                      10                2.828427   -4.65441728365532e-06    8.61852205707588e-06    1.50863202993731e-05
170                      22                      10                       0   -5.94245110658348e-07    1.04442597568972e-06    2.43823636427801e-06
171                      24                       8                5.656854   -8.70536051640093e-06    1.43799549944295e-05     1.0527392681865e-05
172                      24                       8                2.828427   -3.02347655620985e-06    4.82138769888564e-06    5.73564824176444e-06
173                      24                       8                       0   -1.84206881175385e-08    2.85598226716904e-08    4.65713286068873e-08
174                      26                      10                5.656854   -9.80166490679224e-05    8.32833843533005e-05    8.50726219692719e-05
175                      26                      10                2.828427   -9.39100702975442e-07      7.907930913311e-07    1.29510742849422e-06
176                      26                      10                       0   -1.69135221267377e-07    1.41567688824319e-07    3.14044689285038e-07
177                      28                       8                5.656854    -4.6769217838081e-07    4.14323350455541e-07    2.89687436162286e-07
178                      28                       8                2.828427    -2.6058749818768e-07     2.2977773359828e-07    2.62920532204587e-07
179                      28                       8                       0   -2.15471284670023e-09    1.87976761618364e-09    3.03222747966927e-09
180                      30                      10                5.656854   -1.52976701980359e-06    7.80497272068807e-07    7.55780899140511e-07
181                      30                      10                2.828427   -2.91068623130212e-08    1.50206558260384e-08    2.36105352637936e-08
182                      30                      10                       0    -7.2592576009029e-09    3.66419576240766e-09    8.33719246052096e-09
183                       0                      12                5.656854    2.18049786353945e-09    3.22966727705816e-08    4.84156504784023e-08
184                       0                      12                2.828427    1.40398568250096e-09    2.38061208744086e-08     5.7713617587796e-08
185                       0                      12                       0    7.49630175189919e-12    1.34642103780701e-10    5.32191552406801e-10
186                       2                      14                5.656854    8.67328203741451e-06    1.27454814725611e-06    4.29682580891968e-06
187                       2                      14                2.828427    1.38165362532539e-07    2.15326665201074e-08    1.12918884033127e-07
188                       2                      14                       0    3.59502644801293e-08    5.71389705384611e-09    4.05347646870282e-08
189                       4                      12                5.656854    9.20666671184137e-06    3.56075011267104e-06    5.85078745158468e-06
190                       4                      12                2.828427     3.3566257385594e-06    1.34902546809642e-06    3.46448375704941e-06
191                       4                      12                       0    2.10860466270454e-08    8.71617989805558e-09    2.98661539211392e-08
192                       6                      14                5.656854    0.000937874898933437     0.00020539695649495     0.00083591428255049
193                       6                      14                2.828427    5.88838891394771e-06    1.44300976346401e-06    8.35909578668165e-06
194                       6                      14                       0    7.78972550983368e-07    2.02215059776622e-07    1.48147472111976e-06
195                       8                      12                5.656854    0.000337442983734301    0.000263645393313637    0.000478367854870114
196                       8                      12                2.828427    5.17511335642893e-05    3.98845784418295e-05    0.000109792806078219
197                       8                      12                       0    1.85301294137224e-07     1.4077073349369e-07    5.05955141025466e-07
198                      10                      14                5.656854       0.007456080582885     0.00456774488933525      0.0202465144858182
199                      10                      14                2.828427    2.80618541431514e-05    1.68527461863335e-05    0.000109073392087258
200                      10                      14                       0    2.55405241695549e-06    1.48664888442377e-06    1.17879136841639e-05
201                      12                      12                5.656854    0.000604310791852986     0.00158145331158574     0.00338940603865298