ITEM: TIMESTEP
0
ITEM: NUMBER OF ATOMS
422
ITEM: BOX BOUNDS ff ff ff
0.0000000000000000e+00 2.3200000000000000e+02
0.0000000000000000e+00 2.3200000000000000e+02
0.0000000000000000e+00 2.3200000000000000e+02
ITEM: ATOMS id xu yu zu fx fy fz
1        113.114649431328        115.952238053167         108.62557123749    0.000305352463144577   -0.000714474510782033      0.0417791717225394
2        118.778156014753        115.939897416317        108.607525174682     0.00356426984672786     0.00239885544755596       0.119667107043332
3        117.441648291507        116.027098410355         108.69615729759    -0.00343385386259411    -0.00411121861424541      -0.130046447032362
4        114.566714106307        115.980594010294        108.652496067358   -0.000342102072336998    -0.00058055986962942      0.0107403563398133
5        116.722569832948        114.771219515342        108.678348665179    0.000246784845756585   -0.000133839743884517      0.0289284437790221
6        115.264878115368        114.738343733212        108.646905124501   -0.000193104373632191    9.93172450261252e-05      0.0146967566312542
7         115.31515199121         117.26583233157        108.699664126183    -0.00199947299119323    -0.00517086350192408      -0.153381444992007
8        116.667053250447        117.192917655608        108.625317209025     0.00237330120482728     0.00270285928774344       0.159565479836611
9        114.519311211474        113.550000531892        108.658408290716    0.000721144345421529   -0.000466587396005177      0.0227094739988635
10        117.496723248975         113.58757117013        108.693023766244    -0.00150619294293474   -0.000317350716977129     -0.0613135725781049
11        114.463904791703        118.372386892823         108.60789524093     0.00128903651965497     0.00497086452583901       0.155525396874517
12        117.498209183086         118.46684988661        108.699403072431    0.000899217748032241      0.0018754426286843     -0.0901663667819988
13        113.162763664728         113.59789699239        108.692306404492    0.000758555786233235     0.00107959024074531     -0.0766759719805716
14        113.145607295388        118.427713249549        108.680012487275    -0.00323270900373997    -0.00371941056790125     -0.0963176509832848
15        118.834177425424        113.551401492828        108.640063199256    0.000627227222562994     0.00131154312197521      0.0894887394620265
16        118.853928101616        118.418124800701         108.66467633012    0.000765276850299279   -0.000855418010390135      0.0439496114753349
17        112.444833141945        117.212357247446        108.674891303806     0.00240710758103689     0.00023559814949836      -0.125127489291193
18        112.425855193781        114.767905950105        108.653480135042     0.00238885810678075    -0.00223376939673881       0.156163090558958
19        119.554625809534        114.786431725114        108.664858612842    -0.00018467937428488    -0.00210571402902375      -0.127496668469842
20        119.529590683915        117.186869951846        108.642256708887    -0.00363453846062923     0.00442096636008896      -0.214718818400554
21        120.944477242616        114.813777305814        108.646196219992    0.000743551045597813      0.0013660275168062       0.151267937491043
22        120.909198655094        117.114695522419        108.613261292843    -0.00678659290249585    -0.00965004700234738       0.511977783169577
23         111.05103996328        114.844873119611        108.687268290119    0.000924731519086082     0.00838779550915478      -0.395635625637579
24        111.001039086099        117.131069045227        108.639611072953   -0.000337165902037181     0.00225201299592257       0.352519705878046
25        121.576472050762        115.981742668141        108.646599590023      0.0049736161470687    -0.00211493770586612      -0.215638928097652
26        110.405709041053        115.999768445246        108.675872466581    -0.00296025199538667    -0.00301962402782602      0.0115442371474919
27        121.645567012932        118.222293108034        108.693224967108      0.0053383639046993     0.00828766155011909      -0.163954399368133
28        121.619337282282        113.803856565277        108.662588995582    1.84844689147303e-05   -0.000791233069032838      -0.049506998492564
29        110.362615533601         118.17742627017        108.659654782873    -0.00135590324021947     0.00149211271697192       -0.12108155101965
30        110.332691442653        113.755295369122        108.625324452392    -0.00222073644830211    -0.00587693442798937       0.129127287389958
31        112.560980622646        112.576568600496        108.617967800403   -0.000774510536209477     -0.0012724634370383      0.0237519975541109
32        112.558549199288        119.315929019897        108.622299698688    5.52867458244413e-05     0.00190856473598273      0.0288109586490729
33         119.41229047313         112.65424067481        108.688830940178    0.000236981195188709    -0.00123395015350258     -0.0255097658120909
34        119.408411327735        119.392153380982        108.691715120593   -5.88581438236772e-05    0.000242833153616564    -0.00754066934308633
35        114.958934230595        112.565608221608        108.653501657728   -5.13604963107304e-05   -9.76115129381022e-06    -0.00264345309911339
36        114.959040514065        119.405337551524        108.660469405383    0.000902635691944667     0.00130588482282645     -0.0341582559032693
37        117.035519696856        112.588552682573        108.674381772834    8.87862495331252e-05   -0.000319784244724674      0.0149405609539728
38        117.028215385152        119.420871418206        108.673938927621   -0.000556536742205236    0.000360011568565841      0.0237599813275118
39                     100                     100              105.656854                       0                       0                       0
40                     100                     100              102.828427                       0                       0                       0
41                     100                     100                     100                       0                       0                       0
42                     102                     102              105.656854                       0                       0                       0
43                     102                     102              102.828427                       0                       0                       0
44                     102                     102                     100                       0                       0                       0
45                     104                     100              105.656854                       0                       0                       0
46                     104                     100              102.828427                       0                       0                       0
47                     104                     100                     100                       0                       0                       0
48                     106                     102              105.656854                       0                       0                       0
49                     106                     102              102.828427                       0                       0                       0
50                     106                     102                     100                       0                       0                       0
51                     108                     100              105.656854                       0                       0                       0
52                     108                     100              102.828427                       0                       0                       0
53                     108                     100                     100                       0                       0                       0
54                     110                     102              105.656854                       0                       0                       0
55                     110                     102              102.828427                       0                       0                       0
56                     110                     102                     100                       0                       0                       0
57                     112                     100              105.656854                       0                       0                       0
58                     112                     100              102.828427                       0                       0                       0
59                     112                     100                     100                       0                       0                       0
60                     114                     102              105.656854                       0                       0                       0
61                     114                     102              102.828427                       0                       0                       0
62                     114                     102                     100                       0                       0                       0
63                     116                     100              105.656854                       0                       0                       0
64                     116                     100              102.828427                       0                       0                       0
65                     116                     100                     100                       0                       0                       0
66                     118                     102              105.656854                       0                       0                       0
67                     118                     102              102.828427                       0                       0                       0
68                     118                     102                     100                       0                       0                       0
69                     120                     100              105.656854                       0                       0                       0
70                     120                     100              102.828427                       0                       0                       0
71                     120                     100                     100                       0                       0                       0
72                     122                     102              105.656854                       0                       0                       0
73                     122                     102              102.828427                       0                       0                       0
74                     122                     102                     100                       0                       0                       0
75                     124                     100              105.656854                       0                       0                       0
76                     124                     100              102.828427                       0                       0                       0
77                     124                     100                     100                       0                       0                       0
78                     126                     102              105.656854                       0                       0                       0
79                     126                     102              102.828427                       0                       0                       0
80                     126                     102                     100                       0                       0                       0
81                     128                     100              105.656854                       0                       0                       0
82                     128                     100              102.828427                       0                       0                       0
83                     128                     100                     100                       0                       0                       0
84                     130                     102              105.656854                       0                       0                       0
85                     130                     102              102.828427                       0                       0                       0
86                     130                     102                     100                       0                       0                       0
87                     100                     104              105.656854                       0                       0                       0
88                     100                     104              102.828427                       0                       0                       0
89                     100                     104                     100                       0                       0                       0
90                     102                     106              105.656854                       0                       0                       0
91                     102                     106              102.828427                       0                       0                       0
92                     102                     106                     100                       0                       0                       0
93                     104                     104              105.656854                       0                       0                       0
94                     104                     104              102.828427                       0                       0                       0
95                     104                     104                     100                       0                       0                       0
96                     106                     106              105.656854                       0                       0                       0
97                     106                     106              102.828427                       0                       0                       0
98                     106                     106                     100                       0                       0                       0
99                     108                     104              105.656854                       0                       0                       0
100                     108                     104              102.828427                       0                       0                       0
101                     108                     104                     100                       0                       0                       0
102                     110                     106              105.656854                       0                       0                       0
103                     110                     106              102.828427                       0                       0                       0
104                     110                     106                     100                       0                       0                       0
105                     112                     104              105.656854                       0                       0                       0
106                     112                     104              102.828427                       0                       0                       0
107                     112                     104                     100                       0                       0                       0
108                     114                     106              105.656854                       0                       0                       0
109                     114                     106              102.828427                       0                       0                       0
110                     114                     106                     100                       0                       0                       0
111                     116                     104              105.656854                       0                       0                       0
112                     116                     104              102.828427                       0                       0                       0
113                     116                     104                     100                       0                       0                       0
114                     118                     106              105.656854                       0                       0                       0
115                     118                     106              102.828427                       0                       0                       0
116                     118                     106                     100                       0                       0                       0
117                     120                     104              105.656854                       0                       0                       0
118                     120                     104              102.828427                       0                       0                       0
119                     120                     104                     100                       0                       0                       0
120                     122                     106              105.656854                       0                       0                       0
121                     122                     106              102.828427                       0                       0                       0
122                     122                     106                     100                       0                       0                       0
123                     124                     104              105.656854                       0                       0                       0
124                     124                     104              102.828427                       0                       0                       0
125                     124                     104                     100                       0                       0                       0
126                     126                     106              105.656854                       0                       0                       0
127                     126                     106              102.828427                       0                       0                       0
128                     126                     106                     100                       0                       0                       0
129                     128                     104              105.656854                       0                       0                       0
130                     128                     104              102.828427                       0                       0                       0
131                     128                     104                     100                       0                       0                       0
132                     130                     106              105.656854                       0                       0                       0
133                     130                     106              102.828427                       0                       0                       0
134                     130                     106                     100                       0                       0                       0
135                     100                     108              105.656854                       0                       0                       0
136                     100                     108              102.828427                       0                       0                       0
137                     100                     108                     100                       0                       0                       0
138                     102                     110              105.656854                       0                       0                       0
139                     102                     110              102.828427                       0                       0                       0
140                     102                     110                     100                       0                       0                       0
141                     104                     108              105.656854                       0                       0                       0
142                     104                     108              102.828427                       0                       0                       0
143                     104                     108                     100                       0                       0                       0
144                     106                     110              105.656854                       0                       0                       0
145                     106                     110              102.828427                       0                       0                       0
146                     106                     110                     100                       0                       0                       0
147                     108                     108              105.656854                       0                       0                       0
148                     108                     108              102.828427                       0                       0                       0
149                     108                     108                     100                       0                       0                       0
150                     110                     110              105.656854                       0                       0                       0
151                     110                     110              102.828427                       0                       0                       0
152                     110                     110                     100                       0                       0                       0
153                     112                     108              105.656854                       0                       0                       0
154                     112                     108              102.828427                       0                       0                       0
155                     112                     108                     100                       0                       0                       0
156                     114                     110              105.656854                       0                       0                       0
157                     114                     110              102.828427                       0                       0                       0
158                     114                     110                     100                       0                       0                       0
159                     116                     108              105.656854                       0                       0                       0
160                     116                     108              102.828427                       0                       0                       0
161                     116                     108                     100                       0                       0                       0
162                     118                     110              105.656854                       0                       0                       0
163                     118                     110              102.828427                       0                       0                       0
164                     118                     110                     100                       0                       0                       0
165                     120                     108              105.656854                       0                       0                       0
166                     120                     108              102.828427                       0                       0                       0
167                     120                     108                     100                       0                       0                       0
168                     122                     110              105.656854                       0                       0                       0
169                     122                     110              102.828427                       0                       0                       0
170                     122                     110                     100                       0                       0                       0
171                     124                     108              105.656854                       0                       0                       0
172                     124                     108              102.828427                       0                       0                       0
173                     124                     108                     100                       0                       0                       0
174                     126                     110              105.656854                       0                       0                       0
175                     126                     110              102.828427                       0                       0                       0
176                     126                     110                     100                       0                       0                       0
177                     128                     108              105.656854                       0                       0                       0
178                     128                     108              102.828427                       0                       0                       0
179                     128                     108                     100                       0                       0                       0
180                     130                     110              105.656854                       0                       0                       0
181                     130                     110              102.828427                       0                       0                       0
182                     130                     110                     100                       0                       0                       0
183                     100                     112              105.656854                       0                       0                       0
184                     100                     112              102.828427                       0                       0                       0
185                     100                     112                     100                       0                       0                       0
186                     102                     114              105.656854                       0                       0                       0
187                     102                     114              102.828427                       0                       0                       0
188                     102                     114                     100                       0                       0                       0
189                     104                     112              105.656854                       0                       0                       0
190                     104                     112              102.828427                       0                       0                       0
191                     104                     112                     100                       0                       0                       0
192                     106                     114              105.656854                       0                       0                       0
193                     106                     114              102.828427                       0                       0                       0
194                     106                     114                     100                       0                       0                       0
195                     108                     112              105.656854                       0                       0                       0
196                     108                     112              102.828427                       0                       0                       0
197                     108                     112                     100                       0                       0                       0
198                     110                     114              105.656854                       0                       0                       0
199                     110                     114              102.828427                       0                       0                       0
200                     110                     114                     100                       0                       0                       0
201                     112                     112              105.656854                       0                       0                       0