ITEM: TIMESTEP
0
ITEM: NUMBER OF ATOMS
422
ITEM: BOX BOUNDS pp pp pp
0.0000000000000000e+00 3.2000000000000000e+01
0.0000000000000000e+00 3.2000000000000000e+01
0.0000000000000000e+00 3.2000000000000000e+01
ITEM: ATOMS id xu yu zu fx fy fz
1        13.1459321938386        15.9835208156773                 9.25685   -0.000442559247634117    5.77010680864326e-05     -0.0163733879467671
2        18.8274848400711        15.9892262416344                 9.25685    0.000444301785820694    3.88406780461592e-05      -0.016295588767899
3         17.402344993917         15.987795112765                 9.25685   -0.000417264520727267    5.49521146757104e-05     -0.0156386734173813
4         14.571072038949        15.9849519429358                 9.25685    0.000408810397472315    6.91687351231512e-05     -0.0155679140290217
5        16.7010751677692        14.7497248501637                 9.25685     -0.0024430414136708     0.00135863862780763     -0.0121371318959444
6        15.2748269908674        14.7482926087119                 9.25685     0.00250549971511621     0.00141683016583072      -0.011871428887665
7        15.2723418650276        17.2230222053877                 9.25685     0.00243979199170746    -0.00143723606737903     -0.0120372988690867
8        16.6985900414216        17.2244544465825                 9.25685    -0.00237409982329681    -0.00136457114489751     -0.0123294912190649
9        14.5177569207574        13.5484462411751                 9.25685     0.00296477502590697    -0.00257871045842013     0.00109215832933117
10        17.4605534827313        13.5514014038861                 9.25685    -0.00305297382549757    -0.00252931352140086    0.000848746229608201
11        14.5128635507729         18.421345651893                 9.25685     0.00299407253924972     0.00245109016090579     0.00147507393867818
12        17.4556601106552        18.4243008141789                 9.25685    -0.00311202469876742     0.00241399259265231     0.00103947349053952
13        13.1273112602358        13.5624445878976                 9.25685    -0.00376254468706799    -0.00184078185577577    -0.00396673981876298
14        13.1224488081137        18.4045547622743                 9.25685     -0.0038304296421427     0.00172059937067706    -0.00378973340894398
15         18.850968226168        13.5681922935721                 9.25685     0.00376409291210806    -0.00186630031368287    -0.00357631290725058
16        18.8461057714963        18.4103024705805                 9.25685     0.00380406133486355     0.00180184712122536    -0.00332834355389866
17         12.426795838139        17.1943199436399                 9.25685    -0.00152001204319248   -0.000807491767666514     -0.0147967031650371
18        12.4292290587396        14.7712798150634                 9.25685    -0.00158487530508766    0.000806632249103172     -0.0146312366128247
19        19.5466211966922        14.7784271122721                 9.25685     0.00165339971750972     0.00084883287542641     -0.0144938589075849
20        19.5441879750283        17.2014672429596                 9.25685     0.00162633689544522   -0.000856046913626785     -0.0145672494022827
21        20.9551350226241        14.8244350858224                 9.25685    -0.00268746190261703     0.00208144054149913    -0.00987073141525439
22        20.9527913622507        17.1582882295758                 9.25685    -0.00263475473334998    -0.00208137491689438     -0.0100579460969325
23        11.0206256731611        14.8144588294926                 9.25685      0.0027381344244029     0.00214812738798345    -0.00949264908977092
24        11.0182820131454        17.1483119722736                 9.25685       0.002630351498433    -0.00216917138800884    -0.00982186621105331
25        21.5867264607395        15.9919970781177                 9.25685   -7.09173579163601e-06    1.33628213246504e-05     -0.0114011284782025
26        10.3866905744716        15.9807499786644                 9.25685     7.8649609035765e-06    3.22033273062051e-05     -0.0113821278894262
27         21.609196045824        18.1859221409264                 9.25685   -0.000939586404270215    0.000442298512395615    -0.00348978210324164
28        21.6136022867001        13.7981215696947                 9.25685    -0.00092702036257579   -0.000479426069454873    -0.00350550788991981
29        10.3598147507275        18.1746254872963                 9.25685    0.000880028353791818    0.000423324016410782    -0.00333215502856647
30        10.3642209902605        13.7868249167297                 9.25685    0.000879752661273802    -0.00051089888460898     -0.0034369286033497
31        12.5998668222426        12.6154548000933                 9.25685     0.00013741222469818    0.000141636699359869    -0.00779466933009124
32        12.5931035005993        19.3504833212092                 9.25685    0.000131510013051978   -0.000146513488333416    -0.00779049456491286
33        19.3803135329519        12.6222637346313                 9.25685   -0.000138738569497297    0.000139496905241966    -0.00779027508436972
34        19.3735502071424         19.357292260389                 9.25685   -0.000136368500881986   -0.000140694576729633    -0.00778544531942764
35        14.9622865728669        12.5689605638796                 9.25685   -0.000158226368296988    6.18282577939944e-05    -0.00771948014125706
36         14.955425108682        19.4017221461408                 9.25685   -0.000152158754049114   -6.12519720640803e-05    -0.00770255244891493
37        17.0179919240215        12.5710249097393                 9.25685    0.000159021436272444    6.56077846195313e-05    -0.00772317651168205
38         17.011130457531        19.4037864905846                 9.25685    0.000154535568545833    -6.7764635015316e-05    -0.00771247378659069
39                       0                       0                5.656854                       0                       0                       0
40                       0                       0                2.828427                       0                       0                       0
41                       0                       0                       0                       0                       0                       0
42                       2                       2                5.656854    4.50204069367716e-10    6.34425674383247e-10    1.93769730713084e-10
43                       2                       2                2.828427                       0                       0                       0
44                       2                       2                       0                       0                       0                       0
45                       4                       0                5.656854                       0                       0                       0
46                       4                       0                2.828427                       0                       0                       0
47                       4                       0                       0                       0                       0                       0
48                       6                       2                5.656854    1.39578337333248e-08    2.79976725203797e-08    8.69331781791278e-09
49                       6                       2                2.828427    2.66539280520912e-10    5.81962178419496e-10    3.29616894293479e-10
50                       6                       2                       0                       0                       0                       0
51                       8                       0                5.656854    5.40089350541088e-10    3.74302739083965e-11    4.54960220003605e-10
52                       8                       0                2.828427    2.64866435971531e-10    1.42967625022695e-11    3.70423734135373e-10
53                       8                       0                       0                       0                       0                       0
54                      10                       2                5.656854     5.9352454734652e-08    2.30798109976163e-07    7.31738368578466e-08
55                      10                       2                2.828427    1.69159045547004e-09    6.80558938621322e-09    3.85564693455562e-09
56                      10                       2                       0    3.45350024026601e-10    1.60681058891649e-09     1.3551134567649e-09
57                      12                       0                5.656854    8.89107454944731e-10    1.60305824955839e-10    1.98805518735764e-09
58                      12                       0                2.828427    5.84967418293499e-10    3.93879880990005e-10    2.06458895429501e-09
59                      12                       0                       0                       0                       0                       0
60                      14                       2                5.656854    3.67006751888056e-08    5.66804271380738e-07    1.82209164149158e-07
61                      14                       2                2.828427     1.0617406749994e-09    1.63933901126387e-08    9.39260861304064e-09
62                      14                       2                       0    1.35600395805159e-10    5.17849556671328e-09    4.35267092625034e-09
63                      16                       0                5.656854   -5.65808823730937e-12    2.20612409214555e-10    3.15164197636127e-09
64                      16                       0                2.828427   -3.71161600909097e-12    1.24417402357665e-10    3.57576167742827e-09
65                      16                       0                       0                       0                       0                       0
66                      18                       2                5.656854   -3.75980970280729e-08    5.63646071575993e-07    1.81153612850793e-07
67                      18                       2                2.828427   -1.08813584907976e-09    1.63106369233725e-08    9.34315653941661e-09
68                      18                       2                       0   -1.44793944819015e-10    5.15552762560379e-09    4.33205444035391e-09
69                      20                       0                5.656854   -8.95151566511939e-10    1.18000658143578e-10     1.9780444454146e-09
70                      20                       0                2.828427   -5.89060812867235e-10    3.71425368349672e-10    2.05456142041219e-09
71                      20                       0                       0                       0                       0                       0
72                      22                       2                5.656854   -5.88137929780942e-08    2.27042943800892e-07    7.19461424728703e-08
73                      22                       2                2.828427   -1.67885442732083e-09    6.70436065582235e-09    3.79629962333395e-09
74                      22                       2                       0   -3.26173616441078e-10    1.04842198012909e-09    9.14926209324532e-10
75                      24                       0                5.656854   -5.35995364751537e-10    2.42406678385578e-11    4.49285419008621e-10
76                      24                       0                2.828427   -2.62954845542389e-10    1.03508524183236e-11    3.65645442044385e-10
77                      24                       0                       0                       0                       0                       0
78                      26                       2                5.656854   -1.36548533786977e-08    2.72940975427678e-08    8.46927475089185e-09
79                      26                       2                2.828427   -2.61223212773699e-10    5.68305134286622e-10    3.21631553412465e-10
80                      26                       2                       0                       0                       0                       0
81                      28                       0                5.656854                       0                       0                       0
82                      28                       0                2.828427                       0                       0                       0
83                      28                       0                       0                       0                       0                       0
84                      30                       2                5.656854   -4.36511770669005e-10     6.1409190370119e-10    1.87379692936481e-10
85                      30                       2                2.828427                       0                       0                       0
86                      30                       2                       0                       0                       0                       0
87                       0                       4                5.656854    4.46899729414617e-12    2.46906792325448e-10    9.07710186314187e-11
88                       0                       4                2.828427                       0                       0                       0
89                       0                       4                       0                       0                       0                       0
90                       2                       6                5.656854    7.72366605877149e-08     7.0366691837674e-08    3.13892260785091e-08
91                       2                       6                2.828427    2.29950665977877e-09    2.09148476332684e-09    1.67381514037803e-09
92                       2                       6                       0     6.0450966287044e-10    5.62779356347067e-10    6.69022886800598e-10
93                       4                       4                5.656854    8.75033692020766e-09    1.19370062626532e-08    4.36311437815304e-09
94                       4                       4                2.828427    8.03557562019961e-09    1.10097292311468e-08    7.24746185982234e-09
95                       4                       4                       0    6.00376683926857e-11     9.2325227214312e-11    8.73256430773447e-11
96                       6                       6                5.656854    2.41995609490333e-06    3.57537931844726e-06    1.63436103063289e-06
97                       6                       6                2.828427    5.48417883257906e-08    7.99254755715605e-08    6.47360234571649e-08
98                       6                       6                       0    1.84570686368018e-08    2.64111390067508e-08    3.09162483515314e-08
99                       8                       4                5.656854    9.70871469517086e-08    2.27710688655807e-07    8.54590388434634e-08
100                       8                       4                2.828427    8.12630256511241e-08     1.8920756451362e-07    1.26160896417967e-07
101                       8                       4                       0    9.60767747580132e-10    2.22886733079182e-09    2.14600022559355e-09
102                      10                       6                5.656854    1.49980427621296e-05    4.45968057228033e-05    2.14480994829566e-05
103                      10                       6                2.828427    2.54885602967133e-07     7.4308815582747e-07    6.27468356555859e-07
104                      10                       6                       0     6.8714159214985e-08    1.95539420386581e-07    2.34121244324416e-07
105                      12                       4                5.656854    1.91188467204186e-07    1.14202839521952e-06    4.42455335969366e-07
106                      12                       4                2.828427    1.41327634877702e-07     8.2043508187682e-07    5.61898454604934e-07
107                      12                       4                       0    1.55195767377603e-09     8.5741643697685e-09    8.43535907211466e-09
108                      14                       6                5.656854    8.34918949285055e-06    0.000123407350559643    6.13420567484049e-05
109                      14                       6                2.828427    1.40483464207618e-07    1.81853986966599e-06    1.58177205223582e-06
110                      14                       6                       0    3.75898277846491e-08    4.32800428142656e-07    5.30900942639324e-07
111                      16                       4                5.656854   -1.77713148904204e-09    1.70509370240683e-06    6.67295479648045e-07
112                      16                       4                2.828427    -1.2542102357929e-09     1.1978606442356e-06    8.28332051370981e-07
113                      16                       4                       0   -1.27101969423606e-11    1.20175596138644e-08    1.19542105318137e-08
114                      18                       6                5.656854   -8.58557268440574e-06    0.000122690995393875    6.09596149212187e-05
115                      18                       6                2.828427   -1.44007146664593e-07    1.80962969870726e-06    1.57341260208142e-06
116                      18                       6                       0   -3.84441942304486e-08    4.31019592550853e-07    5.28532988621953e-07
117                      20                       4                5.656854    -1.9137912617322e-07    1.12871031472955e-06    4.37064099917172e-07
118                      20                       4                2.828427   -1.41613686166173e-07    8.12017485120563e-07    5.55857183255536e-07
119                      20                       4                       0   -1.55639346979393e-09    8.49855672013158e-09    8.35702700691694e-09
120                      22                       6                5.656854   -1.48286680134425e-05    4.37777689655998e-05    2.10341435840277e-05
121                      22                       6                2.828427   -2.52679255087552e-07    7.31498593314685e-07    6.17146490601092e-07
122                      22                       6                       0   -6.82806644501008e-08    1.92979602404488e-07    2.30871718051102e-07
123                      24                       4                5.656854    -9.5370979801798e-08    2.22600123957875e-07    8.34768899863303e-08
124                      24                       4                2.828427   -8.00115920155504e-08    1.85404433518597e-07    1.23533494725329e-07
125                      24                       4                       0   -9.48363718843587e-10    2.18983589408429e-09    2.10684350568567e-09
126                      26                       6                5.656854   -2.35795370149407e-06    3.47229266141811e-06    1.58561701306628e-06
127                      26                       6                2.828427   -5.36368312817421e-08    7.79149312534533e-08    6.30424506865239e-08
128                      26                       6                       0   -1.81160690324986e-08    2.58420730669718e-08    3.02190952264734e-08
129                      28                       4                5.656854   -8.50703067310571e-09    1.15762100529832e-08    4.22753391326869e-09
130                      28                       4                2.828427   -7.83162698258603e-09    1.07047797948501e-08    7.04025146067491e-09
131                      28                       4                       0   -5.86718097038546e-11    9.00153028357709e-11    8.50426431360626e-11
132                      30                       6                5.656854   -7.47173160803716e-08    6.79649885079012e-08    3.02833869109173e-08
133                      30                       6                2.828427   -2.23122548893112e-09    2.02627377696803e-09    1.61976680488788e-09
134                      30                       6                       0   -5.88687958561458e-10    5.47393579986959e-10    6.49789852032359e-10
135                       0                       8                5.656854     3.0843932663098e-10    1.00535452904093e-08    5.73480232790701e-09
136                       0                       8                2.828427    2.68845304896198e-10    9.55034174508487e-09     9.8545640860382e-09
137                       0                       8                       0                       0                       0                       0
138                       2                      10                5.656854    2.40111086775221e-06       1.22107586125e-06    9.96425334055119e-07
139                       2                      10                2.828427    5.60294676908115e-08     2.8787474050555e-08    4.11322039876221e-08
140                       2                      10                       0    1.98409577941677e-08    1.02602576661055e-08    2.07630060794271e-08
141                       4                       8                5.656854    7.47488816217115e-07    6.63995962100549e-07    3.90330979548155e-07
142                       4                       8                2.828427    5.11550838175164e-07     4.5238426283131e-07    4.68929311137103e-07
143                       4                       8                       0    4.96499046945949e-09    4.40515067929484e-09    6.54102023166218e-09
144                       6                      10                5.656854    0.000181084340127843    0.000154548493005529    0.000133424238866277
145                       6                      10                2.828427    2.10629803328254e-06    1.78231273135507e-06    2.65979447028078e-06
146                       6                      10                       0    4.19668321917462e-07     3.5220850977018e-07     7.3228073888196e-07
147                       8                       8                5.656854    1.54358401434488e-05    2.58366608064491e-05    1.59239807593815e-05
148                       8                       8                2.828427    6.56065789844091e-06    1.05972561516081e-05    1.14440837173508e-05
149                       8                       8                       0    4.46015905048758e-08    6.99277891746544e-08    1.06475906277615e-07
150                      10                      10                5.656854     0.00166263870115617     0.00332975948780246     0.00314357731944731
151                      10                      10                2.828427    1.14816019982424e-05    2.17282436934805e-05    3.47995792153127e-05
152                      10                      10                       0    1.55764952586334e-06    2.78744083996367e-06    6.12297136680772e-06
153                      12                       8                5.656854    3.83811826403123e-05     0.00017652741249441    0.000118019702308199
154                      12                       8                2.828427    1.20193609699461e-05    5.23599323303241e-05    6.01229821720534e-05
155                      12                       8                       0    6.64878793204695e-08    2.71944440128849e-07    4.33628817008354e-07
156                      14                      10                5.656854    0.000599756966924812       0.008958170148327      0.0093564550018377
157                      14                      10                2.828427    4.62617482738165e-06    5.00893454335791e-05    8.66375509580618e-05
158                      14                      10                       0    6.87729157069374e-07    5.74613864723002e-06    1.33377387682378e-05
159                      16                       8                5.656854   -2.85200832493029e-07    0.000256838737943591    0.000175815775073481
160                      16                       8                2.828427   -8.68890066953921e-08    7.38204887588923e-05     8.6655634657905e-05
161                      16                       8                       0   -4.63740671627779e-10    3.74302872375671e-07    6.08269959539876e-07
162                      18                      10                5.656854   -0.000625301509683559       0.008925114201286     0.00931261429451917
163                      18                      10                2.828427   -4.76494173696512e-06     4.9928045601825e-05    8.62846705130608e-05
164                      18                      10                       0   -7.03595259804744e-07    5.73032910402851e-06    1.32917463083008e-05
165                      20                       8                5.656854   -3.84163128765395e-05    0.000174369584850104    0.000116445622543819
166                      20                       8                2.828427   -1.20512452328968e-05    5.18565210652988e-05    5.94868599369231e-05
167                      20                       8                       0   -6.67327985710677e-08    2.69828476204207e-07    4.29889816154007e-07
168                      22                      10                5.656854    -0.00164443838333883     0.00327125092286124     0.00308150453606826
169                      22                      10                2.828427   -1.13979539442267e-05    2.14273145483142e-05    3.42549777020233e-05
170                      22                      10                       0   -1.55020419570513e-06    2.75660671531704e-06    6.04611914763873e-06
171                      24                       8                5.656854   -1.51173075286433e-05     2.5182838622113e-05    1.54976921393986e-05
172                      24                       8                2.828427   -6.45341601212878e-06    1.03771443089968e-05    1.11913949359211e-05
173                      24                       8                       0   -4.40294541084628e-08    6.87318357196493e-08    1.04530153612326e-07
174                      26                      10                5.656854   -0.000175886752419547    0.000149729535472761    0.000128979973466277
175                      26                      10                2.828427   -2.05832070940542e-06    1.73720530411191e-06    2.58762666204206e-06
176                      26                      10                       0    -4.1204695590747e-07     3.4490708702263e-07    7.15942913157847e-07
177                      28                       8                5.656854   -7.23763262653656e-07    6.41744154367774e-07    3.76681834691541e-07
178                      28                       8                2.828427   -4.97584833131691e-07     4.3915654366461e-07    4.54593242009341e-07
179                      28                       8                       0   -4.85043592745662e-09    4.29506522439766e-09    6.36893122373091e-09
180                      30                      10                5.656854    -2.3166348864277e-06    1.17777420036731e-06    9.59333495923076e-07
181                      30                      10                2.828427   -5.42889311074176e-08    2.78766645692533e-08    3.97660966942083e-08
182                      30                      10                       0   -1.93143597282764e-08    9.97686529931251e-09    2.01574767412614e-08
183                       0                      12                5.656854    3.22401832475535e-09    4.65352121610004e-08    5.87592063750426e-08
184                       0                      12                2.828427    2.65561663956397e-09    4.32467583489125e-08    9.51280616546851e-08
185                       0                      12                       0    2.36358660514929e-11    4.08926069582709e-10    1.45653857906734e-09
186                       2                      14                5.656854    1.36515650383567e-05    1.97753756037656e-06    5.66872033673469e-06
187                       2                      14                2.828427    2.69646501925616e-07     4.1517731318962e-08    1.99096730672999e-07
188                       2                      14                       0    8.16893408567893e-08     1.2901067933053e-08      8.546138970012e-08
189                       4                      12                5.656854    1.57775114987784e-05    6.04266484156555e-06    8.42881011786445e-06
190                       4                      12                2.828427    7.08648655324827e-06    2.82307491608188e-06    6.63196635159228e-06
191                       4                      12                       0    5.03661730094077e-08    2.06854899712265e-08    6.64217910450108e-08
192                       6                      14                5.656854     0.00187382987277559     0.00039709049033585       0.001409309273527
193                       6                      14                2.828427    1.42099850433735e-05    3.40555651951372e-06    1.83850367802125e-05
194                       6                      14                       0    2.02088928589787e-06    5.18787788112691e-07    3.60746115801537e-06
195                       8                      12                5.656854    0.000736220870486333    0.000576548826783665    0.000893945693119479
196                       8                      12                2.828427    0.000131316931026496    0.000101578365255154    0.000257272465102151
197                       8                      12                       0    4.93962312031268e-07    3.76458057458797e-07    1.27641886210442e-06
198                      10                      14                5.656854      0.0112856205906794     0.00718284060196392      0.0146634423374017
199                      10                      14                2.828427    7.70905047415247e-05    4.65929346602214e-05    0.000284170972048595
200                      10                      14                       0    7.13765135558533e-06    4.18843473760479e-06    3.17149310615968e-05
201                      12                      12                5.656854     0.00133456577786541     0.00358681593563446     0.00656841031398318