ITEM: TIMESTEP
0
ITEM: NUMBER OF ATOMS
422
ITEM: BOX BOUNDS pp pp pp
0.0000000000000000e+00 3.2000000000000000e+01
0.0000000000000000e+00 3.2000000000000000e+01
0.0000000000000000e+00 3.2000000000000000e+01
ITEM: ATOMS id xu yu zu fx fy fz
1        11.2459321938386        15.9835208156773                 8.65685     0.00464324322242604    0.000319004945408303    0.000987130285259903
2        16.9274848400711        15.9892262416344                 8.65685     -0.0054470201607639    0.000272422845992303     0.00377429677087091
3         15.502344993917         15.987795112765                 8.65685     0.00310778391530266    0.000148209845155494    -0.00211416030061592
4         12.671072038949        15.9849519429358                 8.65685    -0.00417433281341622    0.000252538658750295   -0.000160895460368382
5        14.8010751677692        14.7497248501637                 8.65685      0.0290567765050395      0.0272015396081389      0.0875339462226807
6        13.3748269908674        14.7482926087119                 8.65685     -0.0265993844704862      0.0318362373667782        0.10517171523572
7        13.3723418650276        17.2230222053877                 8.65685     -0.0259293348799113     -0.0320919078287691       0.101679978341941
8        14.7985900414216        17.2244544465825                 8.65685      0.0283285647587993     -0.0275149768293468      0.0852920442742796
9        12.6177569207574        13.5484462411751                 8.65685     -0.0266876381061246    -0.00943076435893009      0.0445794182420945
10        15.5605534827313        13.5514014038861                 8.65685      0.0197844058479636    -0.00704861615030504      0.0303345672122738
11        12.6128635507729         18.421345651893                 8.65685     -0.0269535189653387     0.00888122867198585      0.0450810983582425
12        15.5556601106552        18.4243008141789                 8.65685      0.0202549730055187     0.00681386231688514      0.0312458752784692
13        11.2273112602357        13.5624445878976                 8.65685      0.0318772659712973     -0.0117136520655418      0.0609011204973607
14        11.2224488081137        18.4045547622743                 8.65685      0.0325736335628554      0.0111028378068471      0.0627629946219265
15         16.950968226168        13.5681922935721                 8.65685     -0.0358743064525014     -0.0148857930694975       0.082456937828122
16        16.9461057714963        18.4103024705805                 8.65685     -0.0362084543044609      0.0142155627965053      0.0829435329545136
17         10.526795838139        17.1943199436399                 8.65685      0.0227516060661048     -0.0347901456578406       0.107019062951672
18        10.5292290587396        14.7712798150634                 8.65685       0.023611752868644      0.0344136611586582       0.111058971212869
19        17.6466211966922        14.7784271122721                 8.65685     -0.0172520951297662      0.0380247179786833       0.123091262838224
20        17.6441879750283        17.2014672429596                 8.65685     -0.0170097454607425     -0.0381887710135175       0.120199913678691
21        19.0551350226241        14.8244350858224                 8.65685      0.0262317640618876      0.0206348114195858      0.0563088616226641
22        19.0527913622507        17.1582882295758                 8.65685        0.02578499127568     -0.0207469555940621      0.0552786755963541
23        9.12062567316109        14.8144588294926                 8.65685     -0.0275227425099898      0.0255109226435098      0.0737122442989319
24        9.11828201314539        17.1483119722736                 8.65685      -0.026468094756934     -0.0255775985976886      0.0701563848112191
25        19.6867264607395        15.9919970781177                 8.65685    0.000582058674935395    2.24737793340339e-05     -0.0097076711391753
26         8.4866905744716        15.9807499786644                 8.65685   -0.000940227897411069     8.0954064427677e-05    -0.00921616747483669
27         19.709196045824        18.1859221409264                 8.65685     0.00600840533049592    0.000976343490628081     0.00200618420264035
28        19.7136022867001        13.7981215696947                 8.65685     0.00589595629306294    -0.00104854138933507     0.00185189109801634
29        8.45981475072747        18.1746254872963                 8.65685     -0.0093308848008035     0.00121345703195967     0.00670672414782127
30        8.46422099026049        13.7868249167297                 8.65685    -0.00932294483815336    -0.00147736035380322     0.00666125455136671
31        10.6998668222426        12.6154548000933                 8.65685    0.000975450986203277    -0.00221154694771899    -0.00616954642349689
32        10.6931035005993        19.3504833212092                 8.65685     0.00105765961545703     0.00233661400485614    -0.00580846425072523
33        17.4803135329519        12.6222637346313                 8.65685   -0.000876575551783412    -0.00264579541491103    -0.00527991382549912
34        17.4735502071424         19.357292260389                 8.65685   -0.000926662319837903     0.00270733051137564    -0.00508075920630249
35        13.0622865728669        12.5689605638796                 8.65685   -0.000840100763752334    -0.00149805017431034    -0.00764336359778251
36         13.055425108682        19.4017221461408                 8.65685   -0.000908583386494721     0.00155277001924752    -0.00747797085920019
37        15.1179919240215        12.5710249097393                 8.65685    0.000735965482373775    -0.00108167482621754    -0.00838471582752646
38         15.111130457531        19.4037864905846                 8.65685    0.000799105529051221      0.0011436409459177    -0.00822788957006015
39                       0                       0                5.656854                       0                       0                       0
40                       0                       0                2.828427                       0                       0                       0
41                       0                       0                       0                       0                       0                       0
42                       2                       2                5.656854    3.56708656299891e-09    5.91490233849129e-09     1.5164033137004e-09
43                       2                       2                2.828427    1.33255321087338e-10    2.16744860828775e-10    1.10072714029891e-10
44                       2                       2                       0                       0                       0                       0
45                       4                       0                5.656854    2.03425713475706e-10    1.15455982904395e-11    1.12640060457334e-10
46                       4                       0                2.828427                       0                       0                       0
47                       4                       0                       0                       0                       0                       0
48                       6                       2                5.656854    4.23214376285399e-08     1.1263447964582e-07    2.94528132945118e-08
49                       6                       2                2.828427    1.64571638068487e-09    4.37657616675118e-09    2.22011347237169e-09
50                       6                       2                       0    4.07862513208201e-10    1.29148386700453e-09    9.96344638635665e-10
51                       8                       0                5.656854    1.23436205848384e-09    1.15904001987008e-10    1.18102912111756e-09
52                       8                       0                2.828427    8.72550290657464e-10    7.17904142959102e-10    1.74897662937536e-09
53                       8                       0                       0                       0                       0                       0
54                      10                       2                5.656854    8.27011977790585e-08    5.28965640688211e-07    1.41231861611321e-07
55                      10                       2                2.828427    3.02744969463786e-09    1.88196880928367e-08    9.72829296907299e-09
56                      10                       2                       0    1.17834502171373e-09    8.09122041161804e-09    6.30113608577442e-09
57                      12                       0                5.656854    9.07248834159169e-10    2.76841743352678e-10    3.02856328958178e-09
58                      12                       0                2.828427    7.56777162970665e-10    3.07666768030324e-10    6.89193020366829e-09
59                      12                       0                       0                       0                       0                       0
60                      14                       2                5.656854    1.71227192681889e-09    8.06998071565293e-07    2.17082490187868e-07
61                      14                       2                2.828427    6.52809602876059e-11    2.82369014168522e-08     1.4694060366285e-08
62                      14                       2                       0    4.43862025250659e-11    1.28101529851502e-08     1.0015040375729e-08
63                      16                       0                5.656854   -8.35647279119281e-10    2.43744403018163e-10    3.07963479923173e-09
64                      16                       0                2.828427   -6.29299021237327e-10    2.56428626053693e-10    6.96764614856661e-09
65                      16                       0                       0                       0                       0                       0
66                      18                       2                5.656854   -8.10188464394893e-08    5.46632604259076e-07    1.46002888467854e-07
67                      18                       2                2.828427   -2.96583354818328e-09    1.94200708442944e-08    1.00420023402336e-08
68                      18                       2                       0   -1.11580452350195e-09    8.29153434355962e-09     6.4584575183915e-09
69                      20                       0                5.656854   -1.25717149143121e-09    8.78747162115864e-11    1.25385571806418e-09
70                      20                       0                2.828427   -8.90592220451015e-10    6.64020975412271e-11    2.10830931382195e-09
71                      20                       0                       0                       0                       0                       0
72                      22                       2                5.656854   -4.52855370647442e-08    1.23414918424195e-07    3.22700599349586e-08
73                      22                       2                2.828427   -1.72404264401144e-09     4.7257746780509e-09    2.39860666640241e-09
74                      22                       2                       0   -4.13042283981923e-10    1.36499128652763e-09    1.05362353315321e-09
75                      24                       0                5.656854   -2.18350788860227e-10    7.45579175437796e-12      1.243427451338e-10
76                      24                       0                2.828427                       0                       0                       0
77                      24                       0                       0                       0                       0                       0
78                      26                       2                5.656854   -4.67729854145006e-09    7.63222027336375e-09    1.95968589532448e-09
79                      26                       2                2.828427    -1.4696615001945e-10    2.44464009846868e-10    1.24162148570897e-10
80                      26                       2                       0                       0                       0                       0
81                      28                       0                5.656854                       0                       0                       0
82                      28                       0                2.828427                       0                       0                       0
83                      28                       0                       0                       0                       0                       0
84                      30                       2                5.656854                       0                       0                       0
85                      30                       2                2.828427                       0                       0                       0
86                      30                       2                       0                       0                       0                       0
87                       0                       4                5.656854    1.57864282566638e-09     1.7805512678541e-09    5.36921586731174e-10
88                       0                       4                2.828427    1.67087616833813e-09    1.82740432916458e-09    1.10770603100014e-09
89                       0                       4                       0                       0                       0                       0
90                       2                       6                5.656854    6.28333429575158e-07    7.05040578239381e-07    2.64420088172447e-07
91                       2                       6                2.828427    2.04711436134497e-08    2.28357622301837e-08    1.65671255830006e-08
92                       2                       6                       0    9.28898838062297e-09    1.03622270752754e-08    1.11709636486699e-08
93                       4                       4                5.656854    4.29094561933308e-08     7.4245426579861e-08    2.28436011331307e-08
94                       4                       4                2.828427    4.77980923833883e-08    8.21390228295653e-08    4.90905321860411e-08
95                       4                       4                       0    6.31695429817727e-10     1.1133581638105e-09    9.94704860236956e-10
96                       6                       6                5.656854    1.00918651763378e-05    2.00926578222828e-05    7.83458864567343e-06
97                       6                       6                2.828427    2.41603346359771e-07    4.72020135061506e-07     3.5392752748695e-07
98                       6                       6                       0    8.33133995806786e-08     1.5975897796406e-07    1.75945843163386e-07
99                       8                       4                5.656854    2.33495683630792e-07    7.84230909892345e-07    2.49969361398743e-07
100                       8                       4                2.828427    2.19879802249529e-07    7.30027240092546e-07    4.48292205989786e-07
101                       8                       4                       0    2.78420284603475e-09    9.24756048770924e-09    8.40975759750689e-09
102                      10                       6                5.656854    2.46650616131781e-05    0.000127967527178298    5.25562747159641e-05
103                      10                       6                2.828427    4.80204208229047e-07    2.39406816096928e-06    1.87462888656002e-06
104                      10                       6                       0    1.38220224842029e-07    6.57947296105278e-07    7.49932665777066e-07
105                      12                       4                5.656854    1.50428878213214e-07    2.13154233858911e-06    6.94491871631558e-07
106                      12                       4                2.828427    1.38743272036354e-07    1.82936827080281e-06     1.1463748751607e-06
107                      12                       4                       0    1.70244762271212e-09    2.16999522540591e-08    2.00381283343328e-08
108                      14                       6                5.656854    3.05002835010893e-07    0.000196593379828799    8.20231570645303e-05
109                      14                       6                2.828427    7.62867442569526e-09    3.56564964858721e-06    2.83494226231077e-06
110                      14                       6                       0      2.669348455466e-09    9.50894592914964e-07    1.09889209954438e-06
111                      16                       4                5.656854   -1.39223894934225e-07    2.15896374064523e-06    7.03578262181843e-07
112                      16                       4                2.828427   -1.28675828030373e-07    1.85277600644778e-06    1.16132030177523e-06
113                      16                       4                       0   -1.55979400837309e-09    2.19520484621492e-08    2.02777347209517e-08
114                      18                       6                5.656854   -2.40816419563809e-05    0.000133036119462521    5.46848231651969e-05
115                      18                       6                2.828427   -4.69094611563887e-07     2.4785424266303e-06    1.94241104010542e-06
116                      18                       6                       0   -1.34863005418193e-07    6.78452702901784e-07    7.73894632516306e-07
117                      20                       4                5.656854   -2.39879327886418e-07     8.3650643548374e-07    2.66908845536912e-07
118                      20                       4                2.828427   -2.24623738430822e-07    7.74083009830354e-07    4.75780282431365e-07
119                      20                       4                       0   -2.81587371648798e-09    9.73177277902819e-09    8.85716655869754e-09
120                      22                       6                5.656854   -1.08820751630472e-05    2.23021805441386e-05    8.71088835292353e-06
121                      22                       6                2.828427   -2.57538365018615e-07    5.18058541910385e-07    3.88958829561252e-07
122                      22                       6                       0   -8.77011745867853e-08    1.73270857142878e-07    1.91013813811435e-07
123                      24                       4                5.656854    -4.7511615853521e-08    8.41543141720114e-08    2.58870474593575e-08
124                      24                       4                2.828427   -5.21759140932749e-08    9.18395131347872e-08    5.49223853791673e-08
125                      24                       4                       0   -6.77117871785841e-10    1.22663274241106e-09    1.09614902917689e-09
126                      26                       6                5.656854    -7.2607077256052e-07    8.32828561627415e-07    3.12427843938917e-07
127                      26                       6                2.828427   -2.33209907792322e-08    2.65817139178736e-08    1.92897788280997e-08
128                      26                       6                       0   -1.03879713965927e-08    1.18512868752063e-08    1.27748641969591e-08
129                      28                       4                5.656854   -2.00370101345634e-09    2.25505400918981e-09    6.81716277703254e-10
130                      28                       4                2.828427   -1.92263514783303e-09    2.14422397554722e-09    1.29916602699954e-09
131                      28                       4                       0                       0                       0                       0
132                      30                       6                5.656854   -1.91633059427352e-09     1.5454006898491e-08    5.72540226471944e-09
133                      30                       6                2.828427   -4.98821082732532e-11    4.25260751114315e-10    3.18053818687351e-10
134                      30                       6                       0                       0                       0                       0
135                       0                       8                5.656854    1.06927242552469e-07    7.58566249108802e-08    3.65981102801754e-08
136                       0                       8                2.828427    1.13481075600593e-07    8.04987630489458e-08     7.4855392626321e-08
137                       0                       8                       0    1.43893002552983e-09    1.02022835902693e-09    1.42228500048621e-09
138                       2                      10                5.656854    3.18282495112662e-05    1.98388241184223e-05    1.39155794994618e-05
139                       2                      10                2.828427    6.67468674107199e-07    4.19547408179993e-07    5.57244548466068e-07
140                       2                      10                       0    2.04034308582647e-07    1.29224970207775e-07    2.48201170058966e-07
141                       4                       8                5.656854    5.74347088857361e-06    6.70498339613394e-06     3.3526274620046e-06
142                       4                       8                2.828427    3.78359784478928e-06     4.3433440074936e-06    4.16269186870715e-06
143                       4                       8                       0    3.53543735530459e-08    3.99347232848835e-08    5.59431130556176e-08
144                       6                      10                5.656854     0.00119424821440358     0.00149748963731414     0.00111735461221449
145                       6                      10                2.828427    1.25963976152796e-05    1.51284070724239e-05    2.12050194648438e-05
146                       6                      10                       0    2.17323045996037e-06    2.51393281282998e-06    5.03694378318578e-06
147                       8                       8                5.656854     5.1209276326554e-05    0.000125968957220038    6.77389461534702e-05
148                       8                       8                2.828427    2.21566868717245e-05    5.29473434206258e-05    5.37626070621107e-05
149                       8                       8                       0    1.45370995498071e-07    3.34412985299252e-07    4.89732513971448e-07
150                      10                      10                5.656854      0.0031902094479883      0.0112578666076108     0.00948007431262995
151                      10                      10                2.828427    2.47659629890686e-05    8.41725102509334e-05    0.000129977320999458
152                      10                      10                       0    3.29581685766258e-06    1.04108887252509e-05    2.23405550574071e-05
153                      12                       8                5.656854    2.73214936900117e-05    0.000399292792910394    0.000227937582359737
154                      12                       8                2.828427    1.17336262700709e-05    0.000138298223569584    0.000147633833795477
155                      12                       8                       0    7.74229488955629e-08    7.59807985523973e-07    1.15797968988286e-06
156                      14                      10                5.656854    6.82105898268371e-06      0.0157041284708955      0.0138400711075785
157                      14                      10                2.828427    1.45136439881092e-07    0.000115402249552288    0.000185384143958101
158                      14                      10                       0    4.78473340130518e-08    1.40700484522106e-05    3.11711474952796e-05
159                      16                       8                5.656854   -2.42062423833832e-05    0.000402944460478697    0.000230133230161943
160                      16                       8                2.828427   -1.06238299271979e-05    0.000139739571372914    0.000149249044101686
161                      16                       8                       0   -7.11135201344483e-08    7.68208517354039e-07     1.1713826269657e-06
162                      18                      10                5.656854    -0.00309096302981127      0.0116621891604286     0.00985168018108119
163                      18                      10                2.828427   -2.39541665940671e-05    8.70751765210991e-05    0.000134852083450108
164                      18                      10                       0   -3.18966113398381e-06    1.07172162532326e-05    2.30421320857276e-05
165                      20                       8                5.656854   -5.34147641633217e-05    0.000136458728366627    7.36364181461606e-05
166                      20                       8                2.828427   -2.27663059350624e-05    5.65977411879285e-05    5.76015617612358e-05
167                      20                       8                       0   -1.47836953303878e-07    3.53848283778667e-07    5.19000322545407e-07
168                      22                      10                5.656854    -0.00130995997494616     0.00170984967481676     0.00127809150044669
169                      22                      10                2.828427   -1.35547788325174e-05    1.68867628172512e-05    2.37073348937964e-05
170                      22                      10                       0   -2.29991681527649e-06    2.75180928741672e-06    5.52057867215337e-06
171                      24                       8                5.656854   -6.53704936775091e-06    7.85576358309605e-06    3.93084469215317e-06
172                      24                       8                2.828427   -4.22309034926287e-06    4.98233020020296e-06    4.77827675476686e-06
173                      24                       8                       0   -3.87158626259905e-08    4.48918565409619e-08    6.29251165488294e-08
174                      26                      10                5.656854   -3.85540156079496e-05    2.46256272292606e-05      1.728744023919e-05
175                      26                      10                2.828427    -7.8447143469038e-07    5.04836963545592e-07    6.70894225587712e-07
176                      26                      10                       0   -2.34048607031779e-07    1.51408513345371e-07     2.9086933435956e-07
177                      28                       8                5.656854   -1.30164485665883e-07    9.33821267841561e-08    4.50727800579759e-08
178                      28                       8                2.828427   -1.35614311259518e-07    9.75221111206916e-08    9.07311101491867e-08
179                      28                       8                       0   -1.66824498578988e-09    1.20729002378914e-09    1.68205809987662e-09
180                      30                      10                5.656854   -5.53707703938603e-08    2.07893208460851e-07    1.38011550934407e-07
181                      30                      10                2.828427   -1.82488533362582e-09    7.55846509116001e-09    9.65920648473852e-09
182                      30                      10                       0   -7.15980661998799e-10    3.33157993910306e-09    6.48869078649547e-09
183                       0                      12                5.656854    1.54623409816099e-06    4.80566173094617e-07    5.31156689368033e-07
184                       0                      12                2.828427    1.28717529270893e-06    4.13318032349427e-07    8.55088154928292e-07
185                       0                      12                       0    1.49973561481536e-08    4.90986992918409e-09    1.45200553351937e-08
186                       2                      14                5.656854    0.000245699002496005    4.03554351833968e-05    0.000108058996985984
187                       2                      14                2.828427    3.98932148914417e-06    7.16113735763907e-07    3.35717126332726e-06
188                       2                      14                       0    9.53625154480654e-07    1.83468045491027e-07    1.16841248031177e-06
189                       4                      12                5.656854    0.000217728667605562    0.000107924635631411    0.000134676559412323
190                       4                      12                2.828427    7.47020628969066e-05    3.85125139120631e-05    8.63606235669816e-05
191                       4                      12                       0    4.10804252393775e-07    2.17060862312177e-07    6.75155262507572e-07
192                       6                      14                5.656854      0.0122387998235769     0.00474685123580039      0.0115414066730125
193                       6                      14                2.828427      0.0001049991320952    3.52562691300928e-05     0.00018964962300031
194                       6                      14                       0    1.14804828605043e-05    4.09053069084515e-06    2.81746908403718e-05
195                       8                      12                5.656854     0.00258040382601907     0.00320539799948394     0.00431768493307266
196                       8                      12                2.828427    0.000494057091090222    0.000623781740008928     0.00153308498798688
197                       8                      12                       0    1.69460943710064e-06    1.99923694687891e-06    6.68540778332322e-06
198                      10                      14                5.656854    -0.00830881869505572     -0.0306757300350819      -0.283676771379639
199                      10                      14                2.828427     0.00013488061931107    0.000168924508598816     0.00108419365861489
200                      10                      14                       0    1.37018587532806e-05    1.52914741204452e-05    0.000118337203482496
201                      12                      12                5.656854     0.00066425200062696     0.00512580606112385     0.00746796290659379