ITEM: TIMESTEP
0
ITEM: NUMBER OF ATOMS
422
ITEM: BOX BOUNDS pp pp pp
0.0000000000000000e+00 3.2000000000000000e+01
0.0000000000000000e+00 3.2000000000000000e+01
0.0000000000000000e+00 3.2000000000000000e+01
ITEM: ATOMS id xu yu zu fx fy fz
1        13.1459321938386        17.2835208156773                 8.65685     -0.0302129916668784     -0.0253684714845537      0.0850737404231167
2        18.8274848400711        17.2892262416344                 8.65685      0.0302715289572484     -0.0260174745653289      0.0884289660064158
3         17.402344993917         17.287795112765                 8.65685     -0.0268470081270683     -0.0319959150723948       0.111896769868398
4         14.571072038949        17.2849519429358                 8.65685      0.0260908103406777     -0.0326741324155266       0.114080572320892
5        16.7010751677692        16.0497248501637                 8.65685    -0.00438248885451256   -0.000879401512184852    0.000303003028854944
6        15.2748269908674        16.0482926087119                 8.65685     0.00451714996144961    -0.00089024284082001    0.000634932021021237
7        15.2723418650276        18.5230222053877                 8.65685      0.0290289335352513      0.0124135325907795      0.0525262684712178
8        16.6985900414216        18.5244544465825                 8.65685     -0.0281378377905704      0.0118891588252954      0.0495833360602573
9        14.5177569207574        14.8484462411751                 8.65685      0.0215159255545333      0.0352348034175248       0.102404624619123
10        17.4605534827313        14.8514014038861                 8.65685     -0.0220279235843373      0.0347403186932677       0.100358870973506
11        14.5128635507729         19.721345651893                 8.65685     0.00610711510835566      0.0123214861106013      0.0200791074814184
12        17.4556601106552        19.7243008141789                 8.65685    -0.00631042754816441      0.0119419475474527      0.0192990564531731
13        13.1273112602358        14.8624445878976                 8.65685     -0.0261578772680634      0.0258545466779934      0.0700196871884444
14        13.1224488081137        19.7045547622743                 8.65685    -0.00750750698533409     0.00944851705494777      0.0121039219935938
15         18.850968226168        14.8681922935721                 8.65685       0.025960336630772      0.0264796238092395      0.0714755943940811
16        18.8461057714963        19.7103024705805                 8.65685     0.00745957828283739     0.00959868419513621      0.0126991851875237
17         12.426795838139        18.4943199436399                 8.65685     -0.0187421742984594     0.00739825000835401      0.0283725137152884
18        12.4292290587396        16.0712798150634                 8.65685    -0.00272439816929585   -0.000758023549283547    -0.00263287680348066
19        19.5466211966922        16.0784271122721                 8.65685     0.00289199899890038   -0.000873813014488967     -0.0024083874392066
20        19.5441879750283        18.5014672429596                 8.65685      0.0198298142906219     0.00782082174174412       0.030105421419813
21        20.9551350226241        16.1244350858224                 8.65685    -0.00582328880250335    -0.00326358193127853     0.00493315987225227
22        20.9527913622507        18.4582882295758                 8.65685     -0.0353751251425997      0.0156032867336161      0.0812619165671345
23        11.0206256731611        16.1144588294926                 8.65685     0.00586109086664165    -0.00310290221498569     0.00528467695428002
24        11.0182820131454        18.4483119722736                 8.65685      0.0359693955879664      0.0159326215753951      0.0854538314877178
25        21.5867264607395        17.2919970781177                 8.65685    -0.00859539290742826     -0.0147894538180049      0.0456787518222595
26        10.3866905744716        17.2807499786644                 8.65685      0.0080672338936214      -0.015077757366045        0.04588064964546
27         21.609196045824        19.4859221409264                 8.65685    -0.00274559076892539     0.00954454413207226     0.00696214744865368
28        21.6136022867001        15.0981215696947                 8.65685    -0.00513615733146233      0.0146692453286117      0.0244280333993001
29        10.3598147507275        19.4746254872963                 8.65685     0.00262023249336664      0.0098810012097619     0.00766522946502707
30        10.3642209902605        15.0868249167297                 8.65685     0.00497317442856513      0.0149212293250456      0.0254544985554218
31        12.5998668222426        13.9154548000933                 8.65685    -0.00311608796833708   -0.000166411630264293    -0.00439402629069429
32        12.5931035005993        20.6504833212092                 8.65685   -0.000628422479025115    -0.00057881797902018    -0.00912340357723931
33        19.3803135329519        13.9222637346313                 8.65685     0.00320977444851801   -0.000160291340115018    -0.00413045534912042
34        19.3735502071424         20.657292260389                 8.65685    0.000679190776211105   -0.000650783038770697    -0.00898713580930495
35        14.9622865728669        13.8689605638796                 8.65685     0.00451191249823729   -0.000584212145558038     0.00265244576000513
36         14.955425108682        20.7017221461408                 8.65685     0.00117869818558108     -0.0017602825022236    -0.00678082945587633
37        17.0179919240215        13.8710249097393                 8.65685    -0.00448542115000572   -0.000558630527260351      0.0022901310822083
38         17.011130457531        20.7037864905846                 8.65685    -0.00116535362398917     -0.0016702884084511    -0.00695376094822511
39                       0                       0                5.656854                       0                       0                       0
40                       0                       0                2.828427                       0                       0                       0
41                       0                       0                       0                       0                       0                       0
42                       2                       2                5.656854                       0                       0                       0
43                       2                       2                2.828427                       0                       0                       0
44                       2                       2                       0                       0                       0                       0
45                       4                       0                5.656854    2.14630151308339e-10    -3.7347810411335e-10    9.19401755588943e-11
46                       4                       0                2.828427                       0                       0                       0
47                       4                       0                       0                       0                       0                       0
48                       6                       2                5.656854    1.64315127961384e-09    3.91487596588134e-09    9.31956688355788e-10
49                       6                       2                2.828427    7.47952284758349e-11    1.78562866442923e-10    8.25546099974919e-11
50                       6                       2                       0                       0                       0                       0
51                       8                       0                5.656854    2.76166044103063e-09     -7.631894363609e-09    1.91389226304692e-09
52                       8                       0                2.828427    2.80014086665115e-09   -7.97057820860119e-09    3.88686886299868e-09
53                       8                       0                       0    2.01374565898065e-11   -4.97594707814909e-11    3.79540633161698e-11
54                      10                       2                5.656854    1.15197400989405e-08    4.15608072178884e-08      1.200868930046e-08
55                      10                       2                2.828427    4.41567403554366e-10    1.66272613069343e-09    8.51363214965856e-10
56                      10                       2                       0    6.86901876893892e-11      3.148141357167e-10    2.28719658334634e-10
57                      12                       0                5.656854    5.01541002208566e-09   -3.32233075378811e-08    8.49880536697328e-09
58                      12                       0                2.828427    5.59052597569094e-09   -4.00426694867209e-08     1.9551335195109e-08
59                      12                       0                       0    3.44619724865805e-11   -2.52700715498523e-10    1.93098876025978e-10
60                      14                       2                5.656854    7.66391239488003e-09    1.01406559267772e-07    3.01497964113844e-08
61                      14                       2                2.828427    3.05390594679232e-10    3.95453580434739e-09    2.13444773861472e-09
62                      14                       2                       0    6.35720478166734e-11    1.15090125403297e-09    8.38240663156244e-10
63                      16                       0                5.656854     6.3117472054404e-12   -4.95440255255503e-08    1.28102828974884e-08
64                      16                       0                2.828427   -9.10051471405537e-13   -5.96078033274618e-08    2.92901325003343e-08
65                      16                       0                       0   -1.07570241696604e-13   -4.74875513891107e-10    3.63340291311329e-10
66                      18                       2                5.656854   -7.57127124473616e-09      1.018958284894e-07      2.976041917328e-08
67                      18                       2                2.828427   -3.12076574696886e-10    3.93269405928699e-09    2.12415335971866e-09
68                      18                       2                       0    9.43618336988103e-12    8.53671684663808e-10    6.21269272975406e-10
69                      20                       0                5.656854   -5.03595195327941e-09   -3.32106462121588e-08    8.49556905244746e-09
70                      20                       0                2.828427   -5.62607169801008e-09     -4.004898740548e-08    1.95570451153332e-08
71                      20                       0                       0   -3.50394184968754e-11   -2.52709499449154e-10    1.93186342286825e-10
72                      22                       2                5.656854   -1.14362752842117e-08    4.08278531449976e-08    1.18289273705112e-08
73                      22                       2                2.828427    -4.3846029104148e-10    1.63714736941444e-09    8.39027979941194e-10
74                      22                       2                       0     -6.825726460496e-11    3.10640651337876e-10    2.25558634030457e-10
75                      24                       0                5.656854   -2.75627167749261e-09   -7.58831907233311e-09    1.90301102086089e-09
76                      24                       0                2.828427   -2.79909023414234e-09   -7.92897735757021e-09    3.86785302246611e-09
77                      24                       0                       0                       0                       0                       0
78                      26                       2                5.656854   -1.60818486070336e-09    3.81753843530004e-09    9.08173419786204e-10
79                      26                       2                2.828427    -7.3316016450848e-11    1.74393082409468e-10    8.05721323495666e-11
80                      26                       2                       0                       0                       0                       0
81                      28                       0                5.656854   -2.13044635493583e-10   -3.69262286906982e-10     9.0947557886528e-11
82                      28                       0                2.828427                       0                       0                       0
83                      28                       0                       0                       0                       0                       0
84                      30                       2                5.656854                       0                       0                       0
85                      30                       2                2.828427                       0                       0                       0
86                      30                       2                       0                       0                       0                       0
87                       0                       4                5.656854                       0                       0                       0
88                       0                       4                2.828427                       0                       0                       0
89                       0                       4                       0                       0                       0                       0
90                       2                       6                5.656854    2.45165761442453e-08    2.55407664961634e-08    8.25767926809503e-09
91                       2                       6                2.828427    8.47164311469767e-10    8.90038417986992e-10    5.65094275239031e-10
92                       2                       6                       0                       0                       0                       0
93                       4                       4                5.656854    1.94247136467244e-09    2.98083250887542e-09    8.12610081054093e-10
94                       4                       4                2.828427    1.86728237603866e-09    2.91279823415908e-09    1.57262109971032e-09
95                       4                       4                       0                       0                       0                       0
96                       6                       6                5.656854    6.43645871193717e-07    1.06758436219936e-06     3.5226863196758e-07
97                       6                       6                2.828427    2.08276347037144e-08    3.42027732361521e-08    2.18551391204005e-08
98                       6                       6                       0    9.09864478885573e-09    1.51512558900802e-08      1.435664466216e-08
99                       8                       4                5.656854    2.12199539940352e-08    5.44065143214447e-08      1.509897980003e-08
100                       8                       4                2.828427     2.4426120040915e-08    6.29505572025069e-08    3.38818416849363e-08
101                       8                       4                       0    2.99440152900055e-10     7.6713445140228e-10    6.28323404347743e-10
102                      10                       6                5.656854    3.60417990008915e-06    1.18135425962796e-05    4.06301740713118e-06
103                      10                       6                2.828427    9.44950703366315e-08    3.05620605015001e-07    2.02042483275261e-07
104                      10                       6                       0    3.54223806627419e-08    1.13124121649273e-07    1.10053861020761e-07
105                      12                       4                5.656854    4.01553906233647e-08    2.56502548289662e-07    7.28628918001143e-08
106                      12                       4                2.828427    4.31449674148343e-08    2.70605816295231e-07    1.48513650661243e-07
107                      12                       4                       0    5.41059225828778e-10    3.74245452005604e-09    3.05726241484385e-09
108                      14                       6                5.656854    2.12176596339783e-06    3.18842080045153e-05    1.12419400983291e-05
109                      14                       6                2.828427    5.48621477683285e-08    7.53261985780159e-07    5.09532555512645e-07
110                      14                       6                       0    1.98542266768338e-08    2.55001095760916e-07     2.5327666614776e-07
111                      16                       4                5.656854   -3.84000822976166e-10    3.82986825363608e-07    1.09661243281422e-07
112                      16                       4                2.828427   -3.99188064070841e-10    3.98186122186011e-07    2.20092550447965e-07
113                      16                       4                       0   -5.36355524137213e-12    5.35417668383646e-09    4.41688825913412e-09
114                      18                       6                5.656854   -2.17835216486589e-06    3.16943031655217e-05    1.11711234123094e-05
115                      18                       6                2.828427   -5.62138106609588e-08    7.49334539879931e-07    5.06714814742777e-07
116                      18                       6                       0   -2.03234525941403e-08    2.53868700540289e-07    2.52076926744291e-07
117                      20                       4                5.656854   -4.02018165132106e-08    2.53561852544369e-07    7.19959498656377e-08
118                      20                       4                2.828427   -4.32300699833499e-08    2.67791972940949e-07     1.4690763672698e-07
119                      20                       4                       0   -5.43464833565796e-10    3.70831803796317e-09    3.02802003491237e-09
120                      22                       6                5.656854   -3.56463466959597e-06     1.1599699285094e-05     3.9864040561779e-06
121                      22                       6                2.828427   -9.36509031251339e-08    3.00739938337719e-07    1.98672704233934e-07
122                      22                       6                       0   -3.51823337987424e-08    1.11573224426768e-07    1.08470868075222e-07
123                      24                       4                5.656854   -2.08589954435823e-08    5.32199607543819e-08    1.47600689672784e-08
124                      24                       4                2.828427   -2.40531999598456e-08    6.16884039897173e-08    3.31811217584074e-08
125                      24                       4                       0   -2.95530737372932e-10    7.53570596137071e-10    6.16785159013406e-10
126                      26                       6                5.656854    -6.2785021566056e-07    1.03778613408774e-06    3.42123707958474e-07
127                      26                       6                2.828427   -2.03701486411752e-08    3.33386782359334e-08    2.12841916867444e-08
128                      26                       6                       0   -8.92632062543533e-09    1.48148080366058e-08    1.40252931030558e-08
129                      28                       4                5.656854   -1.88981649077145e-09    2.89271307545769e-09    7.87956777500549e-10
130                      28                       4                2.828427   -1.82023788695843e-09    2.83238749940227e-09    1.52788441117267e-09
131                      28                       4                       0                       0                       0                       0
132                      30                       6                5.656854   -2.37318668572356e-08    2.46814965300171e-08    7.97189702192972e-09
133                      30                       6                2.828427    -8.2193579580924e-10    8.62163885385973e-10    5.46813425108735e-10
134                      30                       6                       0                       0                       0                       0
135                       0                       8                5.656854    1.20360230016861e-10    4.68401948405309e-09    1.89197951487776e-09
136                       0                       8                2.828427    1.30318512672174e-10    5.43640722775674e-09    4.30924269629019e-09
137                       0                       8                       0                       0                       0                       0
138                       2                      10                5.656854    1.23225076778673e-06    7.89913260768817e-07     4.2563963473913e-07
139                       2                      10                2.828427    3.83530832196572e-08    2.46677138314089e-08    2.55097426767553e-08
140                       2                      10                       0    1.63365053680411e-08    1.02198693071273e-08    1.59532765794865e-08
141                       4                       8                5.656854    2.63857223264204e-07    2.77351363266059e-07     1.1348640960358e-07
142                       4                       8                2.828427    2.54550764175826e-07    2.66181370624292e-07     2.1010117095919e-07
143                       4                       8                       0    3.25025828535267e-09    3.38590327034762e-09    3.98021679324144e-09
144                       6                      10                5.656854     7.6050680776968e-05    8.17075100646675e-05    4.58833391812058e-05
145                       6                      10                2.828427    1.36561262553469e-06    1.44277885188771e-06    1.54639439004759e-06
146                       6                      10                       0    3.63579484397482e-07    3.78401635302418e-07    5.89865795976916e-07
147                       8                       8                5.656854    4.61573412468686e-06    8.81071882956908e-06    3.76143775203213e-06
148                       8                       8                2.828427    3.11763551592904e-06    5.81331003131602e-06    4.76150852815376e-06
149                       8                       8                       0    2.96632467385016e-08    5.40062006374947e-08    6.47563370048833e-08
150                      10                      10                5.656854    0.000695479709825209     0.00163291867158297    0.000994868918125962
151                      10                      10                2.828427     7.8819334937072e-06    1.78743842087793e-05    2.04263673260373e-05
152                      10                      10                       0    1.44249016081804e-06    3.12931756121673e-06    5.12540851388247e-06
153                      12                       8                5.656854    1.11981497516798e-05    5.76290514952691e-05    2.61547247053591e-05
154                      12                       8                2.828427    5.96916446022448e-06    2.93233600418828e-05    2.52430172447558e-05
155                      12                       8                       0    4.68057656746286e-08    2.17732725948077e-07    2.71325557369478e-07
156                      14                      10                5.656854    0.000306667777591833     0.00491673275063438      0.0032151541940085
157                      14                      10                2.828427    3.61122316587614e-06    4.46712253927606e-05    5.41195909011742e-05
158                      14                      10                       0    6.89618996427376e-07    6.82432742521923e-06    1.16926753558132e-05
159                      16                       8                5.656854   -9.45055095969134e-08    8.58851656266415e-05    3.96623610690696e-05
160                      16                       8                2.828427   -4.79549012409534e-08    4.24113036067261e-05    3.71286934331713e-05
161                      16                       8                       0   -3.56363557634046e-10    3.06138336498772e-07    3.87312145336436e-07
162                      18                      10                5.656854   -0.000318502653489362     0.00489142211420039     0.00319612087080056
163                      18                      10                2.828427   -3.71832209725174e-06    4.44830176480095e-05    5.38553373195734e-05
164                      18                      10                       0    -7.0603843501294e-07     6.8007087859933e-06    1.16456276117431e-05
165                      20                       8                5.656854     -1.120288009191e-05    5.68961298287921e-05    2.57995224553339e-05
166                      20                       8                2.828427   -5.98061629486498e-06    2.90150190874727e-05    2.49579768426069e-05
167                      20                       8                       0   -4.69492091394102e-08    2.15848253451443e-07    2.68789334126055e-07
168                      22                      10                5.656854   -0.000686580389092704     0.00160079731123508    0.000973628917460362
169                      22                      10                2.828427   -7.81182412304308e-06    1.75941367064138e-05    2.00767566777556e-05
170                      22                      10                       0   -1.43383735713317e-06    3.09008732421089e-06    5.05486650948104e-06
171                      24                       8                5.656854   -4.52140105915817e-06     8.5889267754298e-06    3.66234943779278e-06
172                      24                       8                2.828427    -3.0646542245637e-06    5.68792408096758e-06    4.65365923605454e-06
173                      24                       8                       0   -2.92573999831878e-08    5.30276229862899e-08    6.35186110477421e-08
174                      26                      10                5.656854   -7.38553519055797e-05     7.9113516543829e-05    4.43487784927785e-05
175                      26                      10                2.828427   -1.33308345842959e-06    1.40433682075151e-06    1.50282861225066e-06
176                      26                      10                       0   -3.56564402089348e-07    3.70042564194405e-07    5.76031040021161e-07
177                      28                       8                5.656854   -2.55681781775546e-07    2.68165962997657e-07    1.09591201148355e-07
178                      28                       8                2.828427   -2.47522263723145e-07     2.5826389677893e-07    2.03611874325933e-07
179                      28                       8                       0   -3.17295477019242e-09    3.29844326564155e-09    3.87276187681414e-09
180                      30                      10                5.656854   -1.18865482818837e-06    7.61637357450646e-07    4.09756343341008e-07
181                      30                      10                2.828427   -3.71333084978271e-08    2.38668387688843e-08    2.46461523002583e-08
182                      30                      10                       0   -1.58915820151086e-08    9.93107270473414e-09    1.54778511475599e-08
183                       0                      12                5.656854    2.37641676351985e-09    4.65167920675827e-08    3.56566372941678e-08
184                       0                      12                2.828427    2.45250079046903e-09    5.29609324667454e-08    7.80069740177106e-08
185                       0                      12                       0    2.84614067926169e-11    6.84055996353031e-10    1.56204436364679e-09
186                       2                      14                5.656854    1.32553613574582e-05    3.31504429384822e-06    4.59462145268332e-06
187                       2                      14                2.828427     3.2968013589233e-07    8.60331033517269e-08    2.20998539387076e-07
188                       2                      14                       0    1.17621010133142e-07    3.15214119426572e-08    1.15200555226094e-07
189                       4                      12                5.656854    1.06430591558511e-05     5.7606636512902e-06    4.73673465423246e-06
190                       4                      12                2.828427    6.54843066109774e-06    3.60231114136541e-06    5.56059279710489e-06
191                       4                      12                       0    5.75965665630106e-08    3.21538170023137e-08    7.10636162372166e-08
192                       6                      14                5.656854     0.00196900662243235    0.000770151492620124     0.00124282055143386
193                       6                      14                2.828427    1.96155827934236e-05    8.16987420027452e-06    2.31692487265237e-05
194                       6                      14                       0    3.20866371611436e-06    1.39384567662335e-06     5.3826041794421e-06
195                       8                      12                5.656854    0.000458970504600589    0.000514711722753281    0.000455885385562093
196                       8                      12                2.828427    0.000127029696726338    0.000136180171070717    0.000223424205090053
197                       8                      12                       0    6.02651826168534e-07    6.23370722028096e-07    1.44665635576306e-06
198                      10                      14                5.656854     0.00799257875622778    -0.00449241485520343     -0.0221334919036245
199                      10                      14                2.828427    0.000121643556901928    0.000128894968147391    0.000405671923582733
200                      10                      14                       0    1.24141965550468e-05    1.23346356416981e-05    5.15732841715116e-05
201                      12                      12                5.656854     0.00113387887024684     0.00378447065469617     0.00389033399830441