ITEM: TIMESTEP
0
ITEM: NUMBER OF ATOMS
422
ITEM: BOX BOUNDS pp pp pp
0.0000000000000000e+00 3.2000000000000000e+01
0.0000000000000000e+00 3.2000000000000000e+01
0.0000000000000000e+00 3.2000000000000000e+01
ITEM: ATOMS id xu yu zu fx fy fz
1        13.1459321938386        15.2835208156773                 8.65685     -0.0148477472997191      0.0215199215086836      0.0355191761887312
2        18.8274848400711        15.2892262416344                 8.65685      0.0146782948079174      0.0220089084159394       0.036437342001941
3         17.402344993917         15.287795112765                 8.65685     -0.0131285337951842      0.0271124156420638      0.0477130935291892
4         14.571072038949        15.2849519429358                 8.65685      0.0128535052000006       0.027728863423479      0.0491786001369381
5        16.7010751677692        14.0497248501637                 8.65685     -0.0334503877074289     0.00134668383728345      0.0616168670454547
6        15.2748269908674        14.0482926087119                 8.65685        0.03430351564033     0.00135706536866753      0.0644760116872433
7        15.2723418650276        16.5230222053877                 8.65685     0.00866926830497233    -0.00932549914647787     0.00879847010996254
8        16.6985900414216        16.5244544465825                 8.65685    -0.00841252983401228    -0.00890494177982724     0.00802472081630268
9        14.5177569207574        12.8484462411751                 8.65685      0.0147438226957612     -0.0322210616942814      0.0656905665122552
10        17.4605534827313        12.8514014038861                 8.65685     -0.0152037922415159     -0.0318241007669018       0.064885442121698
11        14.5128635507729         17.721345651893                 8.65685      0.0320380612746632     -0.0173917983048253       0.162039305868113
12        17.4556601106552        17.7243008141789                 8.65685     -0.0333352204027397     -0.0168667693968234        0.15849126450978
13        13.1273112602358        12.8624445878976                 8.65685     -0.0185028943123787     -0.0238206259698956      0.0458859223554503
14        13.1224488081137        17.7045547622743                 8.65685     -0.0395367181173671     -0.0133201842203686       0.112483970274753
15         18.850968226168        12.8681922935721                 8.65685      0.0186346729282974     -0.0244821398140329        0.04775859782864
16        18.8461057714963        17.7103024705805                 8.65685      0.0395452744393265     -0.0135411344193324       0.117199043804696
17         12.426795838139        16.4943199436399                 8.65685    -0.00508613916181866    -0.00516364656768901     0.00135059628590602
18        12.4292290587396        14.0712798150634                 8.65685     -0.0218729294885278     0.00125562181776743       0.035190270315173
19        19.5466211966922        14.0784271122721                 8.65685      0.0229944431619282     0.00143340292820972      0.0370251282218126
20        19.5441879750283        16.5014672429596                 8.65685     0.00549050028164366    -0.00552283846470841     0.00196819976495802
21        20.9551350226241        14.1244350858224                 8.65685     -0.0399945387688192     0.00480066663657384      0.0940497899426293
22        20.9527913622507        16.4582882295758                 8.65685    -0.00924377942654906     -0.0116153608964306       0.013264262385109
23        11.0206256731611        14.1144588294926                 8.65685      0.0404263808829078     0.00456225325035661      0.0976696064131472
24        11.0182820131454        16.4483119722736                 8.65685     0.00921214162577295     -0.0118310575039975      0.0137584116712022
25        21.5867264607395        15.2919970781177                 8.65685    -0.00401045271439781      0.0123529279072062      0.0143858244463059
26        10.3866905744716        15.2807499786644                 8.65685     0.00387681500754534      0.0126750612104619      0.0152835817954824
27         21.609196045824        17.4859221409264                 8.65685    -0.00960039932209641     -0.0126484277665314      0.0564807159674555
28        21.6136022867001        13.0981215696947                 8.65685    -0.00664122629290181     -0.0156132112672213       0.035425847511081
29        10.3598147507275        17.4746254872963                 8.65685      0.0089028145012764     -0.0130258236924087      0.0570129005142065
30        10.3642209902605        13.0868249167297                 8.65685     0.00624259253159723     -0.0157688065793966      0.0353028688855944
31        12.5998668222426        11.9154548000933                 8.65685     8.5425929598136e-06    6.96355013187633e-05     -0.0101289841285933
32        12.5931035005993        18.6504833212092                 8.65685    -0.00225355320718252    0.000904301074651097    -0.00615177555744415
33        19.3803135329519        11.9222637346313                 8.65685   -5.38645206997674e-06    6.90572950315401e-05     -0.0101135017776629
34        19.3735502071424         18.657292260389                 8.65685      0.0023504285199298    0.000985455564995102    -0.00585975135052947
35        14.9622865728669        11.8689605638796                 8.65685    0.000169379940956318    0.000335416714513037    -0.00948306385653514
36         14.955425108682        18.7017221461408                 8.65685     0.00317821127617196     0.00226479460721435    -0.00114729453521158
37        17.0179919240215        11.8710249097393                 8.65685   -0.000160745061696609    0.000318904875589389    -0.00952167551449373
38         17.011130457531        18.7037864905846                 8.65685    -0.00313601623248205     0.00215380339874452    -0.00161301265152213
39                       0                       0                5.656854                       0                       0                       0
40                       0                       0                2.828427                       0                       0                       0
41                       0                       0                       0                       0                       0                       0
42                       2                       2                5.656854     1.6668750524732e-09    2.07457741725452e-09    5.71701503952161e-10
43                       2                       2                2.828427                       0                       0                       0
44                       2                       2                       0                       0                       0                       0
45                       4                       0                5.656854    1.01509713107613e-10    1.83558791078294e-10     4.3250594292191e-11
46                       4                       0                2.828427                       0                       0                       0
47                       4                       0                       0                       0                       0                       0
48                       6                       2                5.656854     4.5572847595265e-08     8.7970811139261e-08    2.40887254468565e-08
49                       6                       2                2.828427    1.80821200553247e-09    3.43791438343074e-09    1.83177648767326e-09
50                       6                       2                       0    5.55691209326252e-10    1.15160854206893e-09    9.33923232675448e-10
51                       8                       0                5.656854    1.18830297007224e-09    3.19918771474095e-09    8.23962557228511e-10
52                       8                       0                2.828427    9.28333911577829e-10    2.91320783595742e-09    1.37009626710938e-09
53                       8                       0                       0                       0                       0                       0
54                      10                       2                5.656854     2.1229232210016e-07    7.89920828145774e-07    2.22005594033737e-07
55                      10                       2                2.828427    7.27147054696096e-09     2.6941200356055e-08    1.46496371235509e-08
56                      10                       2                       0    3.17526652309813e-09    1.20037570433425e-08    9.78042449715761e-09
57                      12                       0                5.656854    2.29866089994161e-09    1.31738654112439e-08    3.90316830733545e-09
58                      12                       0                2.828427    2.23685106747624e-09     1.5386632015874e-08    8.22702257553099e-09
59                      12                       0                       0    1.70852515803732e-11    1.30607168875362e-10    9.50392196094774e-11
60                      14                       2                5.656854    1.30928770566691e-07    1.98920967453757e-06    5.68476140840138e-07
61                      14                       2                2.828427    4.38578325870014e-09    6.43272451823243e-08    3.55036555000059e-08
62                      14                       2                       0    2.03603513019079e-09    2.83959009999381e-08    2.33718207430616e-08
63                      16                       0                5.656854   -2.07268107277492e-11    1.93388681813466e-08    5.84682089816102e-09
64                      16                       0                2.828427    -2.4153782045722e-11    2.38140260838033e-08    1.31019697587847e-08
65                      16                       0                       0   -1.34614847314139e-13    1.58325544479136e-10    1.15467679464432e-10
66                      18                       2                5.656854   -1.34152118482216e-07    1.97776861364033e-06    5.65066593582729e-07
67                      18                       2                2.828427   -4.49140526021898e-09    6.39923487816407e-08    3.53104789656995e-08
68                      18                       2                       0   -2.08336768448195e-09    2.82664374652897e-08       2.32599386339e-08
69                      20                       0                5.656854   -2.30454169114837e-09    1.30123187797926e-08     3.8640795084728e-09
70                      20                       0                2.828427   -2.24613103406133e-09    1.52192085890389e-08    8.14646740056509e-09
71                      20                       0                       0   -1.71478112495379e-11    1.29435861622009e-10    9.41483272871006e-11
72                      22                       2                5.656854   -2.10039361018673e-07    7.75455808918723e-07    2.17899730182354e-07
73                      22                       2                2.828427   -7.21123370279613e-09    2.65261036256215e-08    1.44159998529242e-08
74                      22                       2                       0   -3.15501734171414e-09    1.18408133504012e-08    9.64217441648288e-09
75                      24                       0                5.656854   -1.17054103738492e-09    3.13201267521303e-09    8.07156706523153e-10
76                      24                       0                2.828427   -9.15274244586478e-10    2.85718706876101e-09    1.34295886259064e-09
77                      24                       0                       0                       0                       0                       0
78                      26                       2                5.656854   -4.45417759906316e-08    8.56775691763857e-08    2.34440439982797e-08
79                      26                       2                2.828427   -1.77070720218658e-09    3.35508057344035e-09    1.78637959539604e-09
80                      26                       2                       0   -5.45569310766726e-10    1.12663871616582e-09    9.12900294898636e-10
81                      28                       0                5.656854   -6.22704011036315e-11    1.27712886115823e-10    2.92513812348784e-11
82                      28                       0                2.828427                       0                       0                       0
83                      28                       0                       0                       0                       0                       0
84                      30                       2                5.656854   -1.61627225238371e-09    2.00802714130252e-09    5.52869554408735e-10
85                      30                       2                2.828427                       0                       0                       0
86                      30                       2                       0                       0                       0                       0
87                       0                       4                5.656854    1.16252153414993e-11    5.84033391533668e-10    1.92699823374666e-10
88                       0                       4                2.828427    1.60569103992414e-11    8.61272387953063e-10    5.52095556644579e-10
89                       0                       4                       0                       0                       0                       0
90                       2                       6                5.656854    2.03002042515842e-07     1.7185708776177e-07    6.94822865015093e-08
91                       2                       6                2.828427    7.22436372448995e-09    6.07034986626071e-09    4.75237242929548e-09
92                       2                       6                       0    3.04867183578932e-09    2.53894228870717e-09    3.02765059395522e-09
93                       4                       4                5.656854    2.63787291483884e-08    3.39907765519676e-08     1.1071696646587e-08
94                       4                       4                2.828427      3.097227977159e-08    3.95047829924576e-08    2.50237353799716e-08
95                       4                       4                       0    2.96138675488864e-10    3.84084717886716e-10    3.75818554411973e-10
96                       6                       6                5.656854    7.74064292952215e-06    1.06944587004936e-05    4.45075034177288e-06
97                       6                       6                2.828427    1.93263834080278e-07    2.62741051941791e-07    2.10591370540182e-07
98                       6                       6                       0    6.82631731131147e-08    9.15717203186983e-08    1.08378160701772e-07
99                       8                       4                5.656854    3.33052397494453e-07     7.4493812162293e-07    2.50703235450179e-07
100                       8                       4                2.828427    3.09732506034835e-07    6.85168140965968e-07    4.44597181359818e-07
101                       8                       4                       0    3.82468508192411e-09    8.43903977439898e-09    8.13744933958538e-09
102                      10                       6                5.656854     5.5358514307804e-05    0.000156071668617607    6.89324454675577e-05
103                      10                       6                2.828427    9.98246016445172e-07     2.7589208722946e-06    2.32136298807264e-06
104                      10                       6                       0    2.67124448711897e-07    7.18527938822884e-07     8.7937575256206e-07
105                      12                       4                5.656854    7.01200673897013e-07     4.0672501156225e-06     1.4217295463996e-06
106                      12                       4                2.828427    5.64544827628934e-07    3.16023633311759e-06    2.11958700151416e-06
107                      12                       4                       0    6.26736355815911e-09    3.40383707937543e-08    3.35604358569912e-08
108                      14                       6                5.656854    2.96448646831571e-05    0.000454077368774454    0.000208736313929241
109                      14                       6                2.828427    5.32137897590547e-07    6.97153868935802e-06    6.07887386439715e-06
110                      14                       6                       0    1.42388096113235e-07    1.61373700222253e-06     2.0344039438607e-06
111                      16                       4                5.656854   -6.47395561244155e-09    6.10297086439334e-06    2.15800251705715e-06
112                      16                       4                2.828427   -4.94733330693844e-09    4.62849054857687e-06    3.13942445367856e-06
113                      16                       4                       0   -5.28072436147975e-11    4.89000302422672e-08    4.86550936357925e-08
114                      18                       6                5.656854   -3.05551543451831e-05    0.000451383796853152     0.00020739290537519
115                      18                       6                2.828427   -5.46250182408968e-07    6.93700072547557e-06    6.04602809369748e-06
116                      18                       6                       0   -1.45703983614493e-07    1.60709263882475e-06    2.02522410818415e-06
117                      20                       4                5.656854   -7.01678384273763e-07    4.01784516551494e-06    1.40361477421932e-06
118                      20                       4                2.828427   -5.65514891594516e-07    3.12665170077896e-06    2.09588974786467e-06
119                      20                       4                       0   -6.28573162729714e-09    3.37301620420824e-08    3.32390479562086e-08
120                      22                       6                5.656854   -5.46810615774871e-05    0.000153060701970919    6.75275100737095e-05
121                      22                       6                2.828427   -9.88997122498777e-07     2.7142165340449e-06    2.28146663903577e-06
122                      22                       6                       0   -2.65345297544936e-07    7.08881409006321e-07    8.66790168421385e-07
123                      24                       4                5.656854   -3.26706322290285e-07    7.27328608075509e-07    2.44577236549082e-07
124                      24                       4                2.828427   -3.04698545330042e-07    6.70823534422588e-07    4.34933139652094e-07
125                      24                       4                       0   -3.77316019864579e-09    8.28624490203211e-09    7.98362198759276e-09
126                      26                       6                5.656854   -7.53400074518066e-06    1.03745875976161e-05     4.3122928645073e-06
127                      26                       6                2.828427   -1.88804135354995e-07    2.55856374970848e-07    2.04836233490706e-07
128                      26                       6                       0   -6.69461678405077e-08    8.95258149101179e-08    1.05840019095922e-07
129                      28                       4                5.656854    -2.5615652953792e-08    3.29268701460937e-08     1.0714936300799e-08
130                      28                       4                2.828427   -3.01555230800531e-08    3.83709604975441e-08    2.42827848623439e-08
131                      28                       4                       0   -2.89324525734408e-10    3.74411338637477e-10    3.65948047476993e-10
132                      30                       6                5.656854   -1.96100251484474e-07    1.65875909126341e-07    6.69833598024198e-08
133                      30                       6                2.828427   -6.87801673824398e-09    5.73151039731023e-09    4.51390313641598e-09
134                      30                       6                       0   -2.96628890197845e-09    2.46718761370205e-09    2.93810375736575e-09
135                       0                       8                5.656854    6.74130477622205e-10     1.9345231663443e-08    1.02528922694348e-08
136                       0                       8                2.828427      6.766838135733e-10    2.09944515487222e-08    2.19982677434476e-08
137                       0                       8                       0    5.84994313659508e-12    1.97228647585351e-10    3.35280782012868e-10
138                       2                      10                5.656854    5.09487629912222e-06    2.22804504408619e-06    1.76586675931608e-06
139                       2                      10                2.828427    1.38311851503334e-07    6.16980979228915e-08    9.26240136186789e-08
140                       2                      10                       0    5.30051486360626e-08      2.376418077578e-08    5.20661527163822e-08
141                       4                       8                5.656854    2.03332202959553e-06    1.62574567015219e-06    8.93253403994517e-07
142                       4                       8                2.828427    1.56045887136684e-06    1.24606197902153e-06    1.30971646621013e-06
143                       4                       8                       0    1.68510122093446e-08    1.34470968702799e-08    2.06316392552617e-08
144                       6                      10                5.656854    0.000523670091568373    0.000383225314630918    0.000326872688049906
145                       6                      10                2.828427    6.63655343424304e-06    4.86810340323247e-06    7.73444978924233e-06
146                       6                      10                       0    1.32912938936052e-06    9.74082535681474e-07    2.20069741163565e-06
147                       8                       8                5.656854    5.38232309664583e-05    8.37618427157704e-05    4.84874963600891e-05
148                       8                       8                2.828427    2.40248466908228e-05    3.58664392082058e-05    3.94700618956594e-05
149                       8                       8                       0    1.60937390201162e-07      2.315453205754e-07     3.6871258915742e-07
150                      10                      10                5.656854     0.00532770648629838     0.00930032212865631     0.00869200589140418
151                      10                      10                2.828427    4.07001372578811e-05    6.98167813736306e-05    0.000120212359569159
152                      10                      10                       0    5.26676274828657e-06    8.45106036752856e-06    2.03344190890176e-05
153                      12                       8                5.656854    0.000148871353164318    0.000645177926830444    0.000413978354820806
154                      12                       8                2.828427    4.63616465648993e-05    0.000190996761273153    0.000226613854399041
155                      12                       8                       0    2.43527137192128e-07    9.38108069661048e-07     1.5792714702697e-06
156                      14                      10                5.656854     0.00160534731343111      0.0187745544632817      0.0191447577430547
157                      14                      10                2.828427     1.4439868173044e-05    0.000159559794738103     0.00030358770990312
158                      14                      10                       0    2.15360356205454e-06    1.72741613342843e-05    4.44989930425143e-05
159                      16                       8                5.656854   -1.00545410153418e-06    0.000929621932209402    0.000613792129656986
160                      16                       8                2.828427   -3.13326261463383e-07    0.000266786709215968    0.000325091738220059
161                      16                       8                       0   -1.62041649946387e-09    1.28094115153049e-06    2.20645027294094e-06
162                      18                      10                5.656854    -0.00166899582218389      0.0187602318996349      0.0191198160838274
163                      18                      10                2.828427   -1.49300835552501e-05    0.000159119075326928    0.000302430838363113
164                      18                      10                       0   -2.20558123958415e-06    1.72322310214908e-05    4.43535976085853e-05
165                      20                       8                5.656854   -0.000148980096910805     0.00063704694757407    0.000408204845911012
166                      20                       8                2.828427   -4.64887062223518e-05    0.000189143819241961    0.000224153214914168
167                      20                       8                       0   -2.44458612301166e-07    9.30873875317912e-07    1.56553951143513e-06
168                      22                      10                5.656854    -0.00527628159915183     0.00916254926873737     0.00854288938747465
169                      22                      10                2.828427   -4.04043823561192e-05    6.88547714889794e-05    0.000118293173000169
170                      22                      10                       0   -5.24208890045747e-06    8.35911138764549e-06    2.00774122398349e-05
171                      24                       8                5.656854   -5.26383187431453e-05    8.15238256801848e-05    4.71087638403357e-05
172                      24                       8                2.828427   -2.36117701112182e-05    3.50921879729333e-05    3.85580900079993e-05
173                      24                       8                       0    -1.5879401985508e-07    2.27490268048449e-07    3.61766539398913e-07
174                      26                      10                5.656854   -0.000507848510763228    0.000370820388578694    0.000315471514593101
175                      26                      10                2.828427   -6.47789113422958e-06    4.74045104155076e-06    7.51533360215424e-06
176                      26                      10                       0   -1.30415637677025e-06     9.5342407243815e-07    2.15009623873832e-06
177                      28                       8                5.656854   -1.96647926619359e-06    1.56948786685877e-06    8.60880887136333e-07
178                      28                       8                2.828427   -1.51603879916918e-06    1.20834564886821e-06    1.26811838063758e-06
179                      28                       8                       0   -1.64465078699569e-08    1.30991300741272e-08    2.00697377707226e-08
180                      30                      10                5.656854   -4.91120562648938e-06    2.14745847029883e-06    1.69851681133306e-06
181                      30                      10                2.828427   -1.33863651439097e-07    5.97030617770901e-08    8.94678230233259e-08
182                      30                      10                       0   -5.15583381795863e-08    2.30930753358612e-08    5.05075047431679e-08
183                       0                      12                5.656854    5.51009573355809e-09    6.29892452809885e-08    8.22874129914002e-08
184                       0                      12                2.828427     5.4338384108309e-09    6.97278851047277e-08    1.72278456402398e-07
185                       0                      12                       0    6.69960980170482e-11    1.03062689307318e-09    3.60647232662011e-09
186                       2                      14                5.656854    2.14461307870168e-05    1.94573227344093e-06    7.42409370933045e-06
187                       2                      14                2.828427    5.15425024607368e-07    4.99873007915535e-08    3.45196623264558e-07
188                       2                      14                       0    1.77319804375271e-07    1.81393047140892e-08    1.73486715271689e-07
189                       4                      12                5.656854    3.26833036467518e-05    9.77645079488389e-06    1.46002540531935e-05
190                       4                      12                2.828427    1.73211603691628e-05    5.48047251025745e-06    1.47774171362797e-05
191                       4                      12                       0    1.32304928662964e-07    4.38429543827785e-08    1.64050529525221e-07
192                       6                      14                5.656854     0.00364518354534282    0.000456895399808681     0.00229376879398968
193                       6                      14                2.828427    3.36609415961058e-05    4.94542048318341e-06    3.98391879622681e-05
194                       6                      14                       0    5.06334529799424e-06    8.21588447417036e-07     8.5380976345994e-06
195                       8                      12                5.656854      0.0019847850364059     0.00120666340545311     0.00204010249277886
196                       8                      12                2.828427     0.00040198454602618       0.000248180864929    0.000737181884316058
197                       8                      12                       0    1.47938978571582e-06    9.18289001970995e-07    3.67048960092173e-06
198                      10                      14                5.656854     -0.0315983724463867     0.00550960135620485      -0.165354998171167
199                      10                      14                2.828427     0.00020599356780751     7.8142354705792e-05    0.000732150896369043
200                      10                      14                       0    1.90733646712843e-05    7.22829182929397e-06    8.27995709845356e-05
201                      12                      12                5.656854     0.00149440916273088     0.00487560764842068     0.00743961450572895