ITEM: TIMESTEP
0
ITEM: NUMBER OF ATOMS
422
ITEM: BOX BOUNDS ff ff ff
0.0000000000000000e+00 2.3200000000000000e+02
0.0000000000000000e+00 2.3200000000000000e+02
0.0000000000000000e+00 2.3200000000000000e+02
ITEM: ATOMS id xu yu zu fx fy fz
1        113.153958544154        115.991547165993        108.664880350316       -2.40286037805501       -2.17510711019314      -0.570799077780951
2        118.860986131984        116.022727533548        108.690355291913       -4.81434491042306       -5.83999984767436       -1.14530233840091
3        117.392248887711        115.977699006559        108.646757893794         4.2514495247743        4.17120831164504        1.13682282782734
4        114.583754882805        115.997634786792        108.669536843856       -1.88878184149493       -2.61687320103706      -0.450683597071446
5        116.729220743934        114.777870426329        108.684999576165        -4.0922256691876       -3.96574196934404       -0.89810405657877
6        115.258080041729        114.731545659573        108.640107050861        1.82191019553487       0.869063109454417       0.416661957619637
7        115.246846180373        117.197526520733        108.631358315346        3.26939628429351        2.59830605019126        0.65294980152194
8        116.730809305424        117.256673710585        108.689073264002       -3.82980595159519       -2.45265938264788      -0.708522023660196
9        114.470560453475        113.501249773893        108.609657532718        5.09672952230329         4.3805024493467        0.80012260967215
10        117.452565839607        113.543413760762        108.648866356876        1.07696789077622        1.97130083218613       0.483611734118299
11        114.464169608162        118.372651709282        108.608160057389        1.40585358717324       0.939009571250259       0.241714794860862
12        117.491508747432        118.460149450955        108.692702636777       -3.90894402115024       -2.86548369630009      -0.310938247504436
13        113.177105480003        113.612238807665        108.706648219767        -6.9246668083408       -6.47717915332637       -0.84789157128944
14        113.095609465688        118.377715419848        108.630014657574      0.0399530441375744        1.09822606215056       0.315682709293509
15        118.835790190389        113.553014257793        108.641675964221      -0.298270012280579      -0.532196041637272     -0.0573591112340574
16        118.796602270958        118.360798970042        108.607350499462        5.62021612723353        5.27319492793452       0.869842352398077
17        112.405687164282        117.173211269783        108.635745326143        2.38125097361648        2.36890088621502       0.695014765236491
18        112.407316825151        114.749367581475        108.634941766411        2.67344847245408        3.44296516808962       0.665348695709191
19         119.51908580429         114.75089171987        108.629318607598        4.68795533628721        5.13426143829417        1.28582802998933
20        119.525640083453        117.182919351384        108.638306108425        3.69381422533043        2.69147310314495       0.789365670101523
21        120.984470206474        114.853770269673         108.68618918385       -3.80813422429183       -4.56411441243895       -1.17497538752619
22        120.999084961193        117.204581828518        108.703147598942       -7.43857303654494       -8.19418966918668      -0.794732362442524
23        110.989162831543        114.782995987874        108.625391158381           2.61179641349        3.13474614054487      0.0422614112115433
24        111.055194248758        117.185224207887        108.693766235613       -6.31378684910512       -7.03580792793384       -1.41327273550465
25        121.621055198925        116.026325816303        108.691182738185        1.27674866403272      0.0140614013884244       0.470774287749135
26        110.347810607603        115.941870011796        108.617974033131        3.53831595432727        5.09244145017369       0.966656621880226
27        121.579275938435        118.156002033537        108.626933892611        3.74461301621023        5.98403252057889       0.102501800998242
28        121.572324698049        113.756843981044        108.615576411349        1.12694778219574        2.76797463789697       0.632917780156449
29        110.391795284333        118.206606020902        108.688834533606       0.627356992930299       0.549539607392926       0.344082584978978
30        110.377862306926        113.800466233395        108.670495316665       -2.29286235759229       -3.68375077151074      0.0622375470792727
31        112.585047770215        112.600635748066        108.642034947973        1.55396910859328         2.3202232560679       0.480253658029545
32        112.639296814459        119.396676635069         108.70304731386       -0.31666262619067       -1.24217132021209      -0.235629541819927
33        119.366107351946        112.608057553625        108.642647818994      0.0580218192957581      0.0259966926238108   -0.000565216399950985
34        119.396799307665        119.380541360912        108.680103100523       -1.62273249863995       -2.63252242658521      -0.494141863909949
35        114.960679618899        112.567353609911        108.655247046032      -0.444319705153998      -0.907940378260002      -0.161434569683165
36        114.906162068732        119.352459106191         108.60759096005       0.187412695721281      0.0196641953134925    -0.00765125534880361
37        117.032878852363         112.58591183808        108.671740928341      -0.728367463961158      -0.706904146422959     -0.0416112554886833
38        116.992743763861        119.385399796914         108.63846730633       0.381774314842709        1.03772757416101       0.182005793726572
39                     100                     100              105.656854       0.212200067855734       0.214011364909507        -0.9756882133903
40                     100                     100              102.828427       0.431980718834925       0.430396575181797    -0.00037216845874714
41                     100                     100                     100       0.212176319725961       0.213470566650219        0.97631776592966
42                     102                     102              105.656854      -0.344529517406109       -0.34762577235244      -0.277967073625819
43                     102                     102              102.828427      -0.050860721398907     -0.0482721829608432    0.000679608928767711
44                     102                     102                     100      -0.344523359194402      -0.346514844423876       0.276854770148609
45                     104                     100              105.656854      0.0958005426124017       0.960134319465707      -0.808947955546764
46                     104                     100              102.828427     -0.0637829966770262        0.72663982660064   -0.000271139754082108
47                     104                     100                     100      0.0961750965768842       0.959498352076249       0.809375357607527
48                     106                     102              105.656854      -0.149110907818921      -0.514981608305901      -0.381444233567509
49                     106                     102              102.828427       0.142223575967843        0.06660326159684    0.000365938001729778
50                     106                     102                     100      -0.150140127091348      -0.513820562936677       0.380903750449735
51                     108                     100              105.656854       0.109557217422557        1.06012688026649       -0.80192227125602
52                     108                     100              102.828427      -0.111553345816627       0.639828517149306    0.000257942547268418
53                     108                     100                     100       0.110611476547459        1.06008249478311       0.801442936043163
54                     110                     102              105.656854      -0.143147297907098      -0.581864350290248      -0.373807090266277
55                     110                     102              102.828427        0.14793345807634       0.134823040729228   -0.000970222841498092
56                     110                     102                     100      -0.145537227760737      -0.582649196323717        0.37546829866073
57                     112                     100              105.656854       0.131722859025152        1.10845282862425      -0.810697382778892
58                     112                     100              102.828427      -0.135506357686677       0.589410251942481     0.00116151295648289
59                     112                     100                     100       0.132871887343396        1.10990573118595         0.8087230488219
60                     114                     102              105.656854       -0.16392521646692      -0.618819679184554      -0.361337688401875
61                     114                     102              102.828427       0.168843771154095       0.174874786421016    -0.00261896063453001
62                     114                     102                     100      -0.165345559266245      -0.622748668443058       0.365670330395075
63                     116                     100              105.656854       0.166666984038467        1.14401099289039      -0.821254364792195
64                     116                     100              102.828427      -0.170843520061309       0.552173673428984     0.00164399306035788
65                     116                     100                     100       0.166642178319485        1.14635931619351       0.818486530235914
66                     118                     102              105.656854      -0.209624668352034      -0.651195834364308      -0.347909260453252
67                     118                     102              102.828427        0.21446446959205       0.208256398497766    -0.00257231722014546
68                     118                     102                     100      -0.208104793325519      -0.655022428220563       0.352184246104013
69                     120                     100              105.656854       0.223238568541621         1.1826927137052      -0.835272812346239
70                     120                     100              102.828427       -0.22866221529665       0.512770923123385     0.00113053063779902
71                     120                     100                     100       0.222073366355454        1.18407555759432       0.833335422344576
72                     122                     102              105.656854      -0.288716329461343      -0.688367082624053      -0.330270947217808
73                     122                     102              102.828427       0.293526237051204       0.244650470894592   -0.000890070220188701
74                     122                     102                     100      -0.286352169176375        -0.6889796021606       0.331839531332841
75                     124                     100              105.656854       0.326276278636973         1.2369321985731      -0.852143274726503
76                     124                     100              102.828427      -0.322930786706149       0.459299163471384    0.000233895170953953
77                     124                     100                     100       0.325253064139918        1.23683046908339        0.85168593747613
78                     126                     102              105.656854      -0.461501715952216      -0.727971728890847      -0.331973843201162
79                     126                     102              102.828427       0.397073832645695       0.281950884565602     0.00039711877921172
80                     126                     102                     100      -0.460549902990586      -0.726744028628969        0.33141354168105
81                     128                     100              105.656854       0.708139724771559        1.34085351776684      -0.754783365289652
82                     128                     100              102.828427      -0.280809051964838       0.395945350724999   -0.000267929242034819
83                     128                     100                     100       0.707797226804603        1.34020963021987        0.75519185134763
84                     130                     102              105.656854       -1.34042922598465       -0.70883407501709        -0.7553560977851
85                     130                     102              102.828427      -0.396015923533832       0.281118854322602    0.000663231546952194
86                     130                     102                     100       -1.34047276102752      -0.707736144150535       0.754289010956297
87                     100                     104              105.656854       0.959140893496245       0.100075111629506      -0.808429502608212
88                     100                     104              102.828427       0.727626054832773     -0.0672605298449759    -0.00104053200882816
89                     100                     104                     100       0.958582984831592      0.0987531481025882       0.810153375089253
90                     102                     106              105.656854      -0.513844780787342      -0.157151615834499      -0.382789210712634
91                     102                     106              102.828427      0.0652745174098331       0.148226830624762     0.00215158755474596
92                     102                     106                     100      -0.512513493807726      -0.154157077199198       0.379324675363376
93                     104                     104              105.656854       0.247209270665346       0.252964848433506      -0.388515300137033
94                     104                     104              102.828427       -0.17999167998125      -0.184464200612057    -0.00130823593154849
95                     104                     104                     100       0.247355020182848       0.250502563137271       0.390592759644098
96                     106                     106              105.656854      -0.233065967536579      -0.245049745323919      -0.504670640868271
97                     106                     106              102.828427        0.22522688365407       0.233414075670994      0.0025994162641467
98                     106                     106                     100      -0.234127350209168      -0.239161121183107       0.500509218421809
99                     108                     104              105.656854       0.172972945462343       0.338623305256994      -0.375259427041187
100                     108                     104              102.828427      -0.177075186305487      -0.268761994276374   -0.000244786498601236
101                     108                     104                     100       0.176049688910726       0.336743645070889       0.375564278653243
102                     110                     106              105.656854      -0.181166206636702      -0.292790240076415      -0.489900770146017
103                     110                     106              102.828427       0.191798299011681       0.285466410089434    -0.00124252378148637
104                     110                     106                     100      -0.190749944112696      -0.291769915541053       0.491988583817484
105                     112                     104              105.656854       0.166757089438229       0.379132088742803      -0.391000148403994
106                     112                     104              102.828427      -0.174027855372806      -0.314371066458845     0.00312732839259393
107                     112                     104                     100       0.171700568747633       0.383414362015715       0.385825822010928
108                     114                     106              105.656854      -0.188118405838219      -0.306983345378507      -0.466630236650436
109                     114                     106              102.828427       0.197534511506764       0.311565274592465    -0.00867409736068804
110                     114                     106                     100      -0.195163116758255       -0.32230053080553       0.481543731046018
111                     116                     104              105.656854       0.198480509402722       0.405144376497414        -0.4064972631358
112                     116                     104              102.828427      -0.203625622434469      -0.344169683285209     0.00528139627311312
113                     116                     104                     100       0.198331860307994       0.413983975388743       0.397802217683993
114                     118                     106              105.656854      -0.242072515987323      -0.329959907339182      -0.450869199261866
115                     118                     106              102.828427       0.243967669391316       0.334896580152202    -0.00840095678443715
116                     118                     106                     100      -0.234425766751309       -0.34467655932951       0.465436260699125
117                     120                     104              105.656854       0.260910697053146       0.436404903030183      -0.421672866937264
118                     120                     104              102.828427      -0.265182690601962      -0.373287380673884     0.00294148380753056
119                     120                     104                     100       0.255869435098476       0.440280590304586       0.416725102609538
120                     122                     106              105.656854      -0.318908344733761      -0.364079889909087      -0.438323389615889
121                     122                     106              102.828427       0.320104304901751       0.358471954603624   -0.000786425410202507
122                     122                     106                     100      -0.309543831068916       -0.36207050723956       0.439857347928728
123                     124                     104              105.656854       0.368038038536014       0.464425073846485      -0.438590922869573
124                     124                     104              102.828427      -0.362448709922091      -0.398343622136693   -0.000387623470394774
125                     124                     104                     100       0.365129891545694       0.462263665299253       0.439046672103859
126                     126                     106              105.656854      -0.465591500286119      -0.369773190931046      -0.441531399881784
127                     126                     106              102.828427       0.400722338828375        0.36197653681307     0.00275188458764776
128                     126                     106                     100      -0.464907026690249      -0.363659338703719       0.437255353925204
129                     128                     104              105.656854       0.727703284435578       0.462586829593401      -0.330732422113558
130                     128                     104              102.828427      -0.282395210542946      -0.397277771414147     -0.0013232920675008
131                     128                     104                     100       0.727674965938736       0.460100145025707       0.332789521171955
132                     130                     106              105.656854       -1.23627211787149       -0.32839014977473      -0.853509708812044
133                     130                     106              102.828427      -0.459063948052087       0.323987083828887     0.00211884780562227
134                     130                     106                     100       -1.23769765407996      -0.325455906461403        0.85014932429153
135                     100                     108              105.656854        1.06306629456242       0.116708760647458      -0.799943928855489
136                     100                     108              102.828427       0.638162708265643      -0.116966559755407    -0.00246917282057435
137                     100                     108                     100        1.06068894023045       0.114275289842339       0.803960718058572
138                     102                     110              105.656854      -0.589984139045024      -0.155742412246828      -0.379134283449727
139                     102                     110              102.828427       0.138749905150545        0.15640522057871     0.00533682950526696
140                     102                     110                     100      -0.583840673070404      -0.150576921160443       0.370539505704085
141                     104                     108              105.656854        0.33825707623397       0.189627104005427      -0.371072960200657
142                     104                     108              102.828427      -0.267058468031434       -0.18778776283575    -0.00480062659076564
143                     104                     108                     100       0.334792445057681       0.182211501236391       0.378849173613958
144                     106                     110              105.656854      -0.297780713447053       -0.21886763631333      -0.506359608391252
145                     106                     110              102.828427       0.283114034052261       0.210379691654665      0.0111098214632376
146                     106                     110                     100      -0.288560187954373      -0.199429856308463        0.48539192864491
147                     108                     108              105.656854       0.221497684592829       0.250542529695637      -0.358849659070764
148                     108                     108              102.828427      -0.228732759267539      -0.244224656583172    -0.00475016441597576
149                     108                     108                     100       0.228020857475771       0.235833698980995       0.368049174957822
150                     110                     110              105.656854       -0.17930815135097       -0.25553524520078      -0.489210796110448
151                     110                     110              102.828427       0.215946355203683       0.242963840582275     0.00424823390555689
152                     110                     110                     100      -0.221846717236665      -0.232568915872484       0.475332221211315
153                     112                     108              105.656854       0.175959082289259       0.255879747493139      -0.393860491587886
154                     112                     108              102.828427      -0.198340177540969      -0.269220284660594      0.0084548518866051
155                     112                     108                     100       0.201386945211969       0.267349502932361       0.377986004629847
156                     114                     110              105.656854      -0.180271734470601      -0.185025854910225      -0.384721685210152
157                     114                     110              102.828427       0.209865509330627       0.246738503029996       -0.02677572264981
158                     114                     110                     100      -0.213744369548114      -0.249478281019593       0.469688284500623
159                     116                     108              105.656854       0.221346100490141         0.2510677098512      -0.425489616215677
160                     116                     108              102.828427      -0.226783888693854      -0.282382801693295      0.0188048883140126
161                     116                     108                     100       0.220517220091052       0.286333494018086       0.389195474041342
162                     118                     110              105.656854      -0.286924818572775      -0.198678201506249      -0.368962563799531
163                     118                     110              102.828427       0.267421813986822       0.258903312247065     -0.0254780149360939
164                     118                     110                     100       -0.24970976055239      -0.260658966429813       0.451777677908562
165                     120                     108              105.656854        0.30005275356782       0.292402559518619      -0.427666579049321
166                     120                     108              102.828427      -0.290431797287352      -0.305030459562407     0.00738991730304654
167                     120                     108                     100       0.273969387634032       0.301311568876668       0.413371237069373
168                     122                     110              105.656854      -0.354793167543529      -0.295168061866042       -0.43663130000131
169                     122                     110              102.828427        0.33313391545743       0.278930306338172     0.00649424355936677
170                     122                     110                     100      -0.314829337739275      -0.266387161434491       0.417966435238208
171                     124                     108              105.656854       0.373971744955994       0.321690577281232      -0.430883297903976
172                     124                     108              102.828427      -0.367572364126184      -0.316889885269859    -0.00542842108697326
173                     124                     108                     100       0.368658221638231       0.305753827621836       0.440855480101773
174                     126                     110              105.656854      -0.435617424852881      -0.274904938711903      -0.434807313026019
175                     126                     110              102.828427       0.379448935634727       0.268279281087918      0.0115162575187908
176                     126                     110                     100      -0.446421412981116      -0.255399533719342       0.413711520526033
177                     128                     108              105.656854        0.68758374880057        0.29374777872148      -0.326547557946548
178                     128                     108              102.828427      -0.246207042376204      -0.295385506786822    -0.00483966334385886
179                     128                     108                     100       0.691420040606887       0.286395866647301       0.334228232815558
180                     130                     110              105.656854        -1.1791188751382      -0.227786327354868      -0.838818077502524
181                     130                     110              102.828427      -0.513233227976551       0.231004474252045     0.00521230850284886
182                     130                     110                     100        -1.1853481568222      -0.222875425555108       0.830555660250695
183                     100                     112              105.656854        1.11851592176844       0.138191633223537      -0.806391284723623
184                     100                     112              102.828427       0.583283155512933       -0.14015590885256    -0.00443535481933206
185                     100                     112                     100        1.11285777451915       0.135823161984755       0.813544883961999
186                     102                     114              105.656854        -0.6392977194632      -0.170581321460178      -0.371543141901857
187                     102                     114              102.828427       0.185275544406851       0.173123123602782     0.00871892304901606
188                     102                     114                     100      -0.626761049622628      -0.167745398768189       0.357391152825858
189                     104                     112              105.656854        0.40152139771895       0.187658500360894      -0.374654301861899
190                     104                     112              102.828427      -0.322327854565607       -0.18576858929948     -0.0117865126446398
191                     104                     112                     100       0.385029637203614       0.177635662784414       0.395080738393644
192                     106                     114              105.656854      -0.355967620223283      -0.209461673348232       -0.51709986102901
193                     106                     114              102.828427       0.322162440517741       0.208160792458089      0.0232266334076573
194                     106                     114                     100      -0.322734958364473      -0.199790147993487       0.466497015440352
195                     108                     112              105.656854       0.280987061858362       0.256716302649501      -0.310002929322999
196                     108                     112              102.828427       -0.26225044423965      -0.223525668733391     -0.0210918362938495
197                     108                     112                     100       0.261501797327962       0.211108793903541       0.389226418510965
198                     110                     114              105.656854      -0.159377211182263      -0.207824050413655      -0.747146495887212
199                     110                     114              102.828427       0.224233316508121       0.226754960910982      0.0156528495960168
200                     110                     114                     100      -0.239820102872358      -0.220256981561082       0.456382346213327
201                     112                     112              105.656854       0.100122772204982       0.228986101842751      -0.434347404340575