ITEM: TIMESTEP
0
ITEM: NUMBER OF ATOMS
422
ITEM: BOX BOUNDS pp pp pp
0.0000000000000000e+00 3.2000000000000000e+01
0.0000000000000000e+00 3.2000000000000000e+01
0.0000000000000000e+00 3.2000000000000000e+01
ITEM: ATOMS id xu yu zu fx fy fz
1        13.1459321938386        16.5835208156773                 8.65685     -0.0119629116671207     -0.0182524620726197      0.0264574141177557
2        18.8274848400711        16.5892262416344                 8.65685      0.0120526883722425     -0.0189362783204879      0.0279030033383256
3         17.402344993917         16.587795112765                 8.65685     -0.0107677426890004     -0.0232530878452773      0.0368784095276889
4         14.571072038949        16.5849519429358                 8.65685        0.01045089016228     -0.0236146299167808      0.0376172246828675
5        16.7010751677692        15.3497248501637                 8.65685     -0.0105208127496309      0.0107856615389886      0.0122218757925955
6        15.2748269908674        15.3482926087119                 8.65685      0.0108276484991737      0.0112441540631565      0.0131308060233277
7        15.2723418650276        17.8230222053877                 8.65685      0.0337740075976404    -0.00490096520220761      0.0633570957251414
8        16.6985900414216        17.8244544465825                 8.65685     -0.0327774161960185    -0.00465131647219743      0.0600038054200092
9        14.5177569207574        14.1484462411751                 8.65685      0.0333932376643754     0.00956238258014178       0.167864559112542
10        17.4605534827313        14.1514014038861                 8.65685     -0.0342748640880522      0.0096071195426559       0.165095328806137
11        14.5128635507729         19.021345651893                 8.65685      0.0174621421060493      0.0345596408528208      0.0812655033924961
12        17.4556601106552        19.0243008141789                 8.65685     -0.0180818397820693      0.0338097035860312      0.0789390802948017
13        13.1273112602358        14.1624445878976                 8.65685     -0.0410711594373856     0.00764827938808751        0.11820051466168
14        13.1224488081137        19.0045547622743                 8.65685     -0.0221322869334109      0.0252486209170243      0.0568872779368763
15         18.850968226168        14.1681922935721                 8.65685      0.0409692559679714     0.00809739529648247       0.121224739730628
16        18.8461057714963        19.0103024705805                 8.65685      0.0219325980760656      0.0260806000887295      0.0587844085349812
17         12.426795838139        17.7943199436399                 8.65685     -0.0212603842839611    -0.00352160401286088      0.0339011137731043
18        12.4292290587396        15.3712798150634                 8.65685    -0.00654461153320253     0.00647848287768468     0.00392088634177589
19        19.5466211966922        15.3784271122721                 8.65685     0.00680573496966123     0.00669920328759464      0.0042959478995299
20        19.5441879750283        17.8014672429596                 8.65685      0.0226355067927246    -0.00356300732698922      0.0361817330100564
21        20.9551350226241        15.4244350858224                 8.65685      -0.011317722691639      0.0142931293343264      0.0184661586917398
22        20.9527913622507        17.7582882295758                 8.65685     -0.0388975535462173    -0.00905067266682852      0.0908298038222032
23        11.0206256731611        15.4144588294926                 8.65685       0.011634002194563      0.0149820661787051      0.0198937982927075
24        11.0182820131454        17.7483119722736                 8.65685       0.039207817428389    -0.00975042149632899      0.0944953997970262
25        21.5867264607395        16.5919970781177                 8.65685    -0.00329017455676559     -0.0106799180935422     0.00955011452892491
26        10.3866905744716        16.5807499786644                 8.65685     0.00306218478501367     -0.0106517690346815      0.0094303848209796
27         21.609196045824        18.7859221409264                 8.65685    -0.00761916077623431      0.0154118476069043      0.0419823421027334
28        21.6136022867001        14.3981215696947                 8.65685     -0.0101935370378918      0.0105041724051844      0.0617009188682991
29        10.3598147507275        18.7746254872963                 8.65685     0.00720264205410217      0.0155984836439273       0.043488455233217
30        10.3642209902605        14.3868249167297                 8.65685     0.00976761228024575       0.010376259780307      0.0629766509275878
31        12.5998668222426        13.2154548000933                 8.65685      -0.001955733525265   -0.000949959792784868     -0.0067116866378493
32        12.5931035005993        19.9504833212092                 8.65685    1.77193911295592e-05    3.96186940566369e-05      -0.010146283587336
33        19.3803135329519        13.2222637346313                 8.65685     0.00203126522860516   -0.000999294457791806    -0.00651001515164475
34        19.3735502071424         19.957292260389                 8.65685   -1.07639899633987e-05    3.88358944743575e-05     -0.0101180772467689
35        14.9622865728669        13.1689605638796                 8.65685     0.00272298155832023    -0.00230771700977717    -0.00251964599933172
36         14.955425108682        20.0017221461408                 8.65685    0.000133919596939908   -4.45874359610192e-06    -0.00956942237370168
37        17.0179919240215        13.1710249097393                 8.65685    -0.00271172654050012    -0.00223820865804846    -0.00272825992031644
38         17.011130457531        20.0037864905846                 8.65685   -0.000121579642375002   -9.24381948429497e-06    -0.00962500830666303
39                       0                       0                5.656854                       0                       0                       0
40                       0                       0                2.828427                       0                       0                       0
41                       0                       0                       0                       0                       0                       0
42                       2                       2                5.656854                       0                       0                       0
43                       2                       2                2.828427                       0                       0                       0
44                       2                       2                       0                       0                       0                       0
45                       4                       0                5.656854    5.29469002536239e-11   -1.10104242432666e-10    2.49756471216558e-11
46                       4                       0                2.828427                       0                       0                       0
47                       4                       0                       0                       0                       0                       0
48                       6                       2                5.656854    6.85277734899356e-09    1.46583134729066e-08    3.63184014465263e-09
49                       6                       2                2.828427    1.86392385117494e-10    4.24482376178554e-10    2.07399544374783e-10
50                       6                       2                       0                       0                       0                       0
51                       8                       0                5.656854    1.02530457026614e-09   -2.47752693601944e-09     7.2124872838302e-10
52                       8                       0                2.828427    6.16894374286196e-10   -2.17912444875981e-09    1.00871597341732e-09
53                       8                       0                       0                       0                       0                       0
54                      10                       2                5.656854    3.17357787930992e-08    1.27209952942808e-07    3.23307390226494e-08
55                      10                       2                2.828427    1.16896473255064e-09    4.87770187628352e-09    2.38454690125447e-09
56                      10                       2                       0    2.89942355585995e-10    9.89094786161587e-10    7.64367842173465e-10
57                      12                       0                5.656854    1.98004945007013e-09   -1.03203542243226e-08    3.34618965661613e-09
58                      12                       0                2.828427    1.91563594602128e-09   -1.25504376338753e-08    7.01721722464581e-09
59                      12                       0                       0    3.27023242193094e-12   -6.64381850246434e-11     4.7731823388646e-11
60                      14                       2                5.656854    2.01090570520154e-08       3.11483185143e-07    8.04664509921528e-08
61                      14                       2                2.828427    7.43360284187567e-10    1.17556878525564e-08    5.80631074375864e-09
62                      14                       2                       0    1.21708703538524e-10    4.68611133197891e-09    3.49716958799011e-09
63                      16                       0                5.656854   -1.44112034557679e-12   -1.51768458669389e-08    5.04131680564301e-09
64                      16                       0                2.828427   -4.59561637418344e-12   -1.94269117727914e-08    1.12775859127772e-08
65                      16                       0                       0   -1.53386209443994e-13   -1.36213893599746e-10     9.8287856494443e-11
66                      18                       2                5.656854   -2.05966746473188e-08    3.09729167405577e-07    8.00051749488934e-08
67                      18                       2                2.828427   -7.61774988896796e-10    1.16953220255602e-08    5.77532503951489e-09
68                      18                       2                       0   -1.29656193762289e-10    4.66439249592368e-09    3.47997538406447e-09
69                      20                       0                5.656854   -1.89376414004543e-09   -1.01592586862148e-08     3.2999977753279e-09
70                      20                       0                2.828427   -1.93553957440255e-09   -1.25729471340956e-08    7.01743255997511e-09
71                      20                       0                       0   -3.47666363268782e-12   -6.68344766248664e-11    4.80436834871376e-11
72                      22                       2                5.656854   -3.14547314853973e-08    1.25140312993258e-07    3.17945602804167e-08
73                      22                       2                2.828427   -1.16000076862289e-09    4.80439541440969e-09    2.34755582955882e-09
74                      22                       2                       0   -2.87809634659059e-10    9.76224792688491e-10    7.54056998940456e-10
75                      24                       0                5.656854   -1.02315680938689e-09   -2.46931594522361e-09    7.16610787224994e-10
76                      24                       0                2.828427   -6.20607238247108e-10   -2.17725831261574e-09    1.00818819492319e-09
77                      24                       0                       0                       0                       0                       0
78                      26                       2                5.656854   -6.70496281598602e-09     1.4290923070535e-08    3.53854376884745e-09
79                      26                       2                2.828427   -1.82642267394585e-10    4.14434787551015e-10    2.02342986581551e-10
80                      26                       2                       0                       0                       0                       0
81                      28                       0                5.656854   -5.29372027183658e-11    -1.0945670112521e-10    2.48499871917545e-11
82                      28                       0                2.828427                       0                       0                       0
83                      28                       0                       0                       0                       0                       0
84                      30                       2                5.656854                       0                       0                       0
85                      30                       2                2.828427                       0                       0                       0
86                      30                       2                       0                       0                       0                       0
87                       0                       4                5.656854    2.90811128935948e-12     1.7043719535053e-10    4.92006030580493e-11
88                       0                       4                2.828427                       0                       0                       0
89                       0                       4                       0                       0                       0                       0
90                       2                       6                5.656854    5.22235692598763e-08    5.06884291370054e-08    1.76693172849382e-08
91                       2                       6                2.828427    1.98176644989581e-09    1.92547324549412e-09    1.30522821812884e-09
92                       2                       6                       0    6.39153342949852e-10    6.40880625763569e-10     6.6151463756855e-10
93                       4                       4                5.656854    5.34324945054276e-09    7.65953896679679e-09    2.20542099594772e-09
94                       4                       4                2.828427    6.17399292793986e-09    8.91907696518345e-09    5.02719587195682e-09
95                       4                       4                       0    5.59116116827817e-11    9.12514072421397e-11    7.60530528931676e-11
96                       6                       6                5.656854    1.56341833576422e-06    2.44561291209569e-06    8.70351545278938e-07
97                       6                       6                2.828427    4.67066901630926e-08    7.22477175886867e-08    4.96415758837403e-08
98                       6                       6                       0    1.96100335365241e-08     2.9876352020041e-08    3.05615477694217e-08
99                       8                       4                5.656854    5.65658072119207e-08    1.38461024180608e-07    4.08999233595873e-08
100                       8                       4                2.828427    6.09008975750193e-08    1.48841725370821e-07    8.51706163657125e-08
101                       8                       4                       0    9.10460254550919e-10    2.21825188363995e-09    1.88647823070802e-09
102                      10                       6                5.656854    9.51273627773195e-06    2.96710103444049e-05    1.10671674944885e-05
103                      10                       6                2.828427     2.2163324988263e-07    6.80389505014583e-07     4.8645027660606e-07
104                      10                       6                       0     7.5041165142987e-08    2.25574882061245e-07    2.36273720947273e-07
105                      12                       4                5.656854    1.10338961984751e-07    6.81402310452225e-07    2.07118151137326e-07
106                      12                       4                2.828427    1.08419389058787e-07    6.54144037041832e-07    3.83218329162007e-07
107                      12                       4                       0    1.34130795615225e-09    8.35888219662588e-09    7.27315779083872e-09
108                      14                       6                5.656854    5.45656913479549e-06    8.22136685498524e-05    3.15693011214218e-05
109                      14                       6                2.828427    1.25420942516537e-07    1.69417206272618e-06     1.2442127183557e-06
110                      14                       6                       0     4.1975473308507e-08    5.08892790716888e-07    5.45194725638858e-07
111                      16                       4                5.656854   -1.04410431430703e-09    1.01973356829786e-06     3.1277537653927e-07
112                      16                       4                2.828427   -9.82715576020551e-10    9.57987765554539e-07    5.66501310917556e-07
113                      16                       4                       0   -1.25881216332687e-11    1.22147350802969e-08     1.0708783726468e-08
114                      18                       6                5.656854   -5.60814670295522e-06     8.1721443334917e-05    3.13679726782278e-05
115                      18                       6                2.828427   -1.28579072362756e-07    1.68542599512266e-06    1.23734705168556e-06
116                      18                       6                       0   -4.29402524756995e-08     5.0666924288119e-07    5.42637749461754e-07
117                      20                       4                5.656854   -1.10444227368114e-07     6.7342605554242e-07    2.04594072497754e-07
118                      20                       4                2.828427   -1.08619835007287e-07    6.47274164025417e-07    3.79018855068257e-07
119                      20                       4                       0   -1.34619659823709e-09    8.28275667262238e-09    7.20355507410934e-09
120                      22                       6                5.656854   -9.40404206478785e-06    2.91210382626176e-05    1.08526080638917e-05
121                      22                       6                2.828427   -2.19615097010782e-07    6.69430439875276e-07    4.78231085075538e-07
122                      22                       6                       0   -7.45297788217067e-08     2.2249075706543e-07    2.32870214567258e-07
123                      24                       4                5.656854   -5.55720414444911e-08    1.35365457542349e-07      3.995707666805e-08
124                      24                       4                2.828427   -5.99487930406478e-08     1.4580989099985e-07    8.33775965384629e-08
125                      24                       4                       0   -8.98323913131005e-10    2.17836465667099e-09    1.85126503176886e-09
126                      26                       6                5.656854    -1.5239012764284e-06    2.37566156899256e-06    8.44602893871484e-07
127                      26                       6                2.828427   -4.56612040617409e-08    7.03955201325912e-08    4.83223520729751e-08
128                      26                       6                       0   -1.92356262143891e-08    2.92118290041203e-08    2.98533237865879e-08
129                      28                       4                5.656854   -5.19569351745598e-09    7.42907832545297e-09    2.13731816969947e-09
130                      28                       4                2.828427   -6.01591187383169e-09    8.66951589119899e-09    4.88233795590449e-09
131                      28                       4                       0   -5.46054302437555e-11    8.89067558159754e-11    7.40184122609871e-11
132                      30                       6                5.656854   -5.05213652460098e-08    4.89575209341653e-08    1.70474028165671e-08
133                      30                       6                2.828427   -1.92215527967288e-09    1.86455177211823e-09    1.26257540349092e-09
134                      30                       6                       0   -6.21928949432478e-10    6.22798381808597e-10    6.41985487685163e-10
135                       0                       8                5.656854    2.36656266078664e-10    8.25230011411846e-09    3.66137100730645e-09
136                       0                       8                2.828427    2.67152048843018e-10    1.01556955939238e-08    8.71794606858734e-09
137                       0                       8                       0    2.67653724894496e-12    1.11619797272653e-10    1.51160486983923e-10
138                       2                      10                5.656854    2.12698713447961e-06    1.20947591725883e-06    7.35605782514614e-07
139                       2                      10                2.828427    6.28013282591672e-08    3.59346471497587e-08    4.18306495830269e-08
140                       2                      10                       0    2.65369666787628e-08    1.52441787540647e-08    2.59773175767983e-08
141                       4                       8                5.656854    5.58313280328304e-07    5.38548548043356e-07    2.42089666991905e-07
142                       4                       8                2.828427    4.99393465935516e-07    4.78997119773137e-07    4.14400383437409e-07
143                       4                       8                       0    6.15520393747906e-09    5.83939865334182e-09    7.48685973408763e-09
144                       6                      10                5.656854    0.000157399554919158    0.000150761446481984    9.63209229787369e-05
145                       6                      10                2.828427    2.49453464351819e-06    2.35746050903549e-06    2.85778510563766e-06
146                       6                      10                       0    5.99781359301839e-07    5.58985489529939e-07    9.79443546712565e-07
147                       8                       8                5.656854    1.11699216671735e-05    1.99962715026221e-05    9.40791162980412e-06
148                       8                       8                2.828427    6.59870239873104e-06    1.14731693276493e-05     1.0331562894184e-05
149                       8                       8                       0    5.56286535522138e-08    9.40672737689821e-08    1.23555150762295e-07
150                      10                      10                5.656854      0.0015388901910177      0.0033465480030469     0.00233545508221665
151                      10                      10                2.828427    1.48036475512588e-05     3.0841571351966e-05    4.00855589366873e-05
152                      10                      10                       0    2.38088691942682e-06    4.70825261078704e-06     8.7078756573369e-06
153                      12                       8                5.656854     2.8540615573783e-05    0.000139432151958695    7.05874306871542e-05
154                      12                       8                2.828427    1.27645989372095e-05    5.93454983755158e-05    5.66053021685277e-05
155                      12                       8                       0    8.68454726053498e-08    3.80977601807396e-07    5.23141729227373e-07
156                      14                      10                5.656854    0.000607350732145653     0.00968758088216532     0.00737140622952817
157                      14                      10                2.828427    6.28653294687812e-06    7.55448099645288e-05    0.000105337154466965
158                      14                      10                       0    1.08296746274239e-06    1.00791891549656e-05    1.96410527054183e-05
159                      16                       8                5.656854   -2.27648621178422e-07    0.000206235597177519    0.000106563550353743
160                      16                       8                2.828427   -9.77434544693679e-08    8.50610956140496e-05     8.2740134879197e-05
161                      16                       8                       0   -6.36181552454029e-10    5.31559315331007e-07    7.42577868895543e-07
162                      18                      10                5.656854   -0.000632932910380571     0.00964517025412918     0.00733264265131619
163                      18                      10                2.828427   -6.48198106044335e-06    7.52582427741537e-05    0.000104855500520199
164                      18                      10                       0   -1.10895365374268e-06    1.00475207765749e-05     1.9566684886832e-05
165                      20                       8                5.656854   -2.85527876630252e-05    0.000137644509071219    6.96118830317771e-05
166                      20                       8                2.828427   -1.27916467593676e-05    5.87321261063409e-05    5.59700815169069e-05
167                      20                       8                       0   -8.71316994595667e-08    3.77781575051293e-07    5.18344658317299e-07
168                      22                      10                5.656854    -0.00151989791088577     0.00328273463812382     0.00228635530104859
169                      22                      10                2.828427   -1.46778973192999e-05    3.03727853728176e-05    3.94097678899194e-05
170                      22                      10                       0   -2.36752172962973e-06    4.65152727528711e-06    8.59088863512944e-06
171                      24                       8                5.656854   -1.09349141867416e-05    1.94809839888879e-05    9.15296381926024e-06
172                      24                       8                2.828427    -6.4847327763338e-06    1.12238999948828e-05    1.00947076628943e-05
173                      24                       8                       0    -5.4871459089171e-08    9.23758341266658e-08    1.21198137280327e-07
174                      26                      10                5.656854   -0.000152754776371331    0.000145908128912871    9.30332626750347e-05
175                      26                      10                2.828427   -2.43482774031901e-06     2.2947329967526e-06    2.77685424874638e-06
176                      26                      10                       0   -5.88275674647363e-07    5.46769215404814e-07    9.56575414771662e-07
177                      28                       8                5.656854   -5.40622434746123e-07    5.20398857957594e-07     2.3360761077632e-07
178                      28                       8                2.828427   -4.85428864841041e-07     4.6463055033007e-07    4.01453053216313e-07
179                      28                       8                       0   -6.00824620795281e-09    5.68825479338916e-09    7.28401771471249e-09
180                      30                      10                5.656854   -2.05109959881788e-06    1.16589356142077e-06    7.07875424998221e-07
181                      30                      10                2.828427   -6.07974543308423e-08    3.47658400545164e-08    4.04070463389391e-08
182                      30                      10                       0   -2.58082485825483e-08    1.48080827286991e-08    2.51961240962397e-08
183                       0                      12                5.656854    3.54719667255349e-09    5.54867136581828e-08     5.0065087569418e-08
184                       0                      12                2.828427    3.39750180385632e-09    6.27452052075041e-08    1.07794159262254e-07
185                       0                      12                       0    3.68734342092697e-11    7.41829300796558e-10    2.04358941755047e-09
186                       2                      14                5.656854    1.65225495298711e-05    3.15491846218634e-06     5.7244483223883e-06
187                       2                      14                2.828427    4.04016284180411e-07    8.12491855567454e-08    2.70726121145551e-07
188                       2                      14                       0    1.42148798720804e-07    2.97956662307434e-08    1.39061568475549e-07
189                       4                      12                5.656854    1.68466622069657e-05    7.63208350883139e-06    7.51479853644204e-06
190                       4                      12                2.828427    9.72764532779766e-06    4.52883963574257e-06    8.28029113397895e-06
191                       4                      12                       0    8.05758542240573e-08    3.84167512865005e-08    9.96785315883183e-08
192                       6                      14                5.656854     0.00263393381131912     0.00075505769283218     0.00166185492235215
193                       6                      14                2.828427    2.51595690476523e-05    7.93091708690502e-06    2.97625213451111e-05
194                       6                      14                       0     3.9465989706765e-06    1.32477252768962e-06     6.6378973057352e-06
195                       8                      12                5.656854    0.000847985477069392    0.000798973256234706    0.000860603731497619
196                       8                      12                2.828427    0.000202847718610564    0.000185293916730109    0.000363428772738293
197                       8                      12                       0     8.6746222545842e-07     7.7118434252389e-07    2.11062464482116e-06
198                      10                      14                5.656854     -0.0039081043385469     -0.0133670411286933     -0.0838889658316743
199                      10                      14                2.828427    0.000155527131082401    0.000126559182819989    0.000534465180481666
200                      10                      14                       0    1.51123890580481e-05    1.17242143578396e-05    6.40177821424501e-05
201                      12                      12                5.656854     0.00165907945326677     0.00512117021509702     0.00631349748673232