ITEM: TIMESTEP
0
ITEM: NUMBER OF ATOMS
422
ITEM: BOX BOUNDS ff ff ff
0.0000000000000000e+00 2.3200000000000000e+02
0.0000000000000000e+00 2.3200000000000000e+02
0.0000000000000000e+00 2.3200000000000000e+02
ITEM: ATOMS id xu yu zu fx fy fz
1        113.147227890013        115.984816511852        108.658149696174    -0.00411529969133141   -0.000818028787087077     0.00693161973305978
2        118.795410816261        115.957152217824        108.624779976189     0.00211693647080045    0.000451323725830864      0.0122150596748516
3         117.36211411646        115.947564235308        108.616623122544    -0.00140573581083932     0.00510113919786069      0.0176614796851688
4        114.542522439127        115.956402343114        108.628304400178      0.0069444976892808     0.00481681372216018      0.0180705575043396
5        116.691140852637        114.739790535032        108.646919684868     -0.0180776051409478      0.0164702245528536      0.0411262283771324
6        115.250779271755        114.724244889599        108.632806280887      0.0289836741396389      0.0185488157237949      0.0501351484740219
7         115.31646074547        117.267141085831        108.700972880443      0.0219189256644882    -0.00652536234067006      0.0304499912380955
8        116.734172439881        117.260036845042        108.692436398459     -0.0157540799271215    -0.00795118386062201      0.0349825924459747
9        114.470213632548        113.500902952966        108.609310711791      0.0328645308936838     -0.0459112223124434        0.18740184380011
10        117.470445548706        113.561293469861        108.666746065975     -0.0488232856701116     -0.0352115491776063       0.152676736785112
11        114.497810465277        118.406292566397        108.641800914504      0.0317085918859351      0.0177966015185937       0.175173076700731
12        117.421682741612        118.390323445136        108.622876630957     -0.0566822463645201      0.0180075746198554       0.179288750792337
13        113.166755586556        113.601888914218        108.696298326321     -0.0247458619662735     -0.0263101840667672       0.101561343511148
14        113.114189077795        118.396295031956        108.648594269682     -0.0311880672871103      0.0130889532903741       0.115813109009881
15        118.806310266673        113.523534334077        108.612196040505      0.0183984174228386     -0.0372598404458778        0.13931031509091
16        118.823238883338        118.387435582423        108.633987111842      0.0177879078689146      0.0155199079223874       0.134660338054324
17        112.434725307756        117.202249413257        108.664783469617    -0.00823483041706588     0.00202396716050366      0.0206312757295748
18        112.464990290147        114.807041046471        108.692615231407     -0.0077426859852761      0.0072351711733544      0.0184354681539325
19        119.591570451214        114.823376366794        108.701803254522      0.0156741496688056     0.00606918334413415      0.0132477217752123
20        119.529691297217        117.186970565148        108.642357322188      0.0196617324629189    0.000520973545418222      0.0236682924192969
21        120.988166044994        114.857466108192         108.68988502237       0.132236439182255         0.1270383906784       0.026313661417454
22        120.968098837275          117.1735957046        108.672161475024       0.128237032810791     -0.0217329158434956      0.0254694875585389
23         111.02125614987        114.815089306201        108.657484476709     -0.0124508657146359       0.126661832484207      0.0588184260172301
24        111.046737699697        117.176767658825        108.685309686552     -0.0130681285595075     -0.0173455647650294      0.0458692983367671
25        121.580405555919        115.985676173297         108.65053309518     -0.0579108797734641     -0.0259455288663916     0.00365604336040141
26        110.384142493394        115.978201897587        108.654305918922    -0.00925947922627706      -0.027475707565311     -0.0102673272794948
27         121.58112862879        118.157854723893        108.628786582966      -0.179174978498559      -0.050257695553905       0.198196899226688
28        121.563698313306          113.7482175963        108.606950026606       -0.19121236243032     -0.0901999789998231       0.191372212805137
29         110.35608608687        118.170896823439        108.653125336143      0.0249995874094508     -0.0553576234926317        0.15840347839248
30        110.356250791157        113.778854717627        108.648883800897      0.0297870346661722     -0.0842232379619558       0.146335513269204
31        112.576559257305        112.592147235155        108.633546435062     -0.0164946144873765      0.0270215665059167      0.0141456728067827
32        112.605376479617        119.362756300227        108.669126979018     -0.0141576171855494      0.0169697870025609     0.00532223917672116
33         119.39766263308        112.639612834759        108.674203100128      0.0629713363323491      0.0291577143912623     0.00411704222148382
34        119.368611473952        119.352353527199         108.65191526681      0.0559114794602521      0.0128979742331227   -0.000574313136823439
35        114.927398876677        112.534072867689         108.62196630381     0.00466221116803642      0.0143042078911768   -0.000557803151898944
36        114.987994103935        119.434291141394        108.689422995253     0.00466668342185705      0.0132861734164382    -0.00478537100151569
37        117.006027405946        112.559060391664        108.644889481925       0.022764745181952      0.0149112242085501    -0.00142526791271129
38        117.029305572198        119.421961605251        108.675029114667      0.0211323446884649      0.0127546740032803    -0.00596994759285648
39                     100                     100              105.656854       0.212256391341107       0.214098887965397      -0.975698077125532
40                     100                     100              102.828427       0.431927320657309       0.430314414417141   -0.000384490358309776
41                     100                     100                     100       0.212221724794092        0.21354004645447       0.976345345255251
42                     102                     102              105.656854       -0.34461282101961      -0.347768721792725      -0.277958573653342
43                     102                     102              102.828427     -0.0507855390998154     -0.0481446578519197    0.000709654573018245
44                     102                     102                     100      -0.344582580988997      -0.346614807131133        0.27680328688731
45                     104                     100              105.656854      0.0958419655785616        0.96026782634177      -0.808959081841861
46                     104                     100              102.828427     -0.0638221922507328       0.726517894441368   -0.000292162668549698
47                     104                     100                     100      0.0962071914261568       0.959597027825754       0.809416079772791
48                     106                     102              105.656854      -0.149153348243868      -0.515200705717124      -0.381436197590183
49                     106                     102              102.828427       0.142262566803188      0.0667909373509674    0.000413217971333952
50                     106                     102                     100      -0.150169471824044      -0.513959267587275       0.380830879544891
51                     108                     100              105.656854       0.109553727530375        1.06028668120787      -0.801937632403972
52                     108                     100              102.828427      -0.111553209745583       0.639683114098127    0.000233821832713373
53                     108                     100                     100       0.110612096158458        1.06019803843778       0.801490268928553
54                     110                     102              105.656854      -0.143100935513529      -0.582089890071564      -0.373788438008829
55                     110                     102              102.828427       0.147899998603339       0.135020256900546   -0.000925868066873341
56                     110                     102                     100      -0.145514019898523      -0.582795201782551       0.375393620053515
57                     112                     100              105.656854       0.131676088939377        1.10859090498139      -0.810720819260653
58                     112                     100              102.828427      -0.135466407475734       0.589279183961991     0.00114530568155776
59                     112                     100                     100        0.13283962770408        1.11001269253993         0.8087644765015
60                     114                     102              105.656854      -0.163847553727348      -0.618975335832357      -0.361304015082396
61                     114                     102              102.828427       0.168774505616954        0.17502421486248     -0.0025952662609394
62                     114                     102                     100      -0.165288762885015       -0.62286632918405       0.365613283356557
63                     116                     100              105.656854       0.166609007476272        1.14411488933833      -0.821282024275403
64                     116                     100              102.828427      -0.170787979488095        0.55207215798009     0.00163677451388239
65                     116                     100                     100       0.166592659615254        1.14644359651957        0.81851698436876
66                     118                     102              105.656854      -0.209552580350618      -0.651325996551896      -0.347877735685598
67                     118                     102              102.828427       0.214391112092099       0.208373331988487    -0.00255539110213947
68                     118                     102                     100      -0.208037192212294      -0.655109783465902       0.352141685463259
69                     120                     100              105.656854       0.223171001612504        1.18277001220397      -0.835300293523442
70                     120                     100              102.828427      -0.228597353499978       0.512696866949611     0.00112908457920575
71                     120                     100                     100       0.222015391700429        1.18413512900904       0.833355246423794
72                     122                     102              105.656854       -0.28861609519098      -0.688454646720717       -0.33023868326549
73                     122                     102              102.828427       0.293435240838045        0.24472758042573   -0.000883483630378658
74                     122                     102                     100      -0.286275828941809      -0.689033975873674       0.331813965202509
75                     124                     100              105.656854       0.326205540467763        1.23696714801849      -0.852171483608535
76                     124                     100              102.828427      -0.322863821710526       0.459261845176502    0.000241503291507587
77                     124                     100                     100       0.325194631332935        1.23686166610797       0.851692509683998
78                     126                     102              105.656854      -0.461415166137733      -0.727986223353412      -0.331937669237931
79                     126                     102              102.828427       0.396993117050004       0.281971706549362    0.000384764061607305
80                     126                     102                     100      -0.460482046328065      -0.726761300401014       0.331410313733857
81                     128                     100              105.656854       0.708088295638508        1.34085180633793      -0.754809720924819
82                     128                     100              102.828427      -0.280757864925485       0.395940345023932   -0.000253045760540786
83                     128                     100                     100       0.707750791451483        1.34021646914144       0.755186835723747
84                     130                     102              105.656854       -1.34038290179798      -0.708813404952739      -0.755324949989664
85                     130                     102              102.828427      -0.396064307905684       0.281107941612271    0.000642750480424405
86                     130                     102                     100       -1.34042799958147      -0.707730452633101       0.754299443421886
87                     100                     104              105.656854       0.959264369753255       0.100201530534408      -0.808436630620099
88                     100                     104              102.828427       0.727516481126247     -0.0673725084115025    -0.00107475995895623
89                     100                     104                     100       0.958668106419977      0.0988397376671939       0.810209693592896
90                     102                     106              105.656854      -0.514063369152757      -0.157377416365241      -0.382798123130649
91                     102                     106              102.828427      0.0654497648007137       0.148408205920796     0.00223721372929063
92                     102                     106                     100      -0.512632908254465      -0.154280389424439       0.379214675183925
93                     104                     104              105.656854       0.247336960367271       0.253220369425026      -0.388512256009806
94                     104                     104              102.828427      -0.180097039176918      -0.184672600818988    -0.00138124912395366
95                     104                     104                     100       0.247428484612235       0.250647756055368       0.390690808848655
96                     106                     106              105.656854      -0.233261328947047      -0.245565969728362      -0.504729070350649
97                     106                     106              102.828427        0.22536160795255       0.233769643825021     0.00278222236909488
98                     106                     106                     100      -0.234203935422573      -0.239366783330122       0.500322136977769
99                     108                     104              105.656854       0.172980338295288       0.338998320670818      -0.375252495492392
100                     108                     104              102.828427      -0.177087056626392      -0.269051515275871   -0.000347018176484015
101                     108                     104                     100       0.176058457253044         0.3369316777511       0.375691406248721
102                     110                     106              105.656854      -0.180987523994414      -0.293408412549386      -0.489944129210948
103                     110                     106              102.828427       0.191701935464351       0.285878592196028     -0.0010440866190813
104                     110                     106                     100       -0.19070089563068      -0.291997424494807       0.491785309463421
105                     112                     104              105.656854       0.166620831105978       0.379403571205535      -0.391031892777277
106                     112                     104              102.828427      -0.173930512907902      -0.314608094464517     0.00306034143325453
107                     112                     104                     100       0.171636496241443       0.383579660572526       0.385932948343517
108                     114                     106              105.656854      -0.187917144592492      -0.307164562021675      -0.466536205119656
109                     114                     106              102.828427       0.197378739766549       0.311786803767654    -0.00860361038477594
110                     114                     106                     100      -0.195055050533344      -0.322455261522633       0.481408796452709
111                     116                     104              105.656854       0.198408755579383       0.405317096570999      -0.406540585577853
112                     116                     104              102.828427      -0.203541335301556      -0.344331442302417     0.00524354085050087
113                     116                     104                     100       0.198252435064886       0.414101762390394       0.397879180383907
114                     118                     106              105.656854      -0.242078962126667      -0.330295355679308      -0.450877321103804
115                     118                     106              102.828427       0.243891960023519       0.335103687366717    -0.00829651707099454
116                     118                     106                     100      -0.234328351160073      -0.344785435351526       0.465322839462932
117                     120                     104              105.656854       0.260800291650249       0.436604563756171      -0.421695164622801
118                     120                     104              102.828427      -0.265078394862116      -0.373431002040246     0.00289673481405393
119                     120                     104                     100       0.255778609676153       0.440365416553393       0.416786991781118
120                     122                     106              105.656854      -0.318644335325263      -0.364354006336451      -0.438321278607298
121                     122                     106              102.828427        0.31991952462701       0.358624582434627   -0.000698573325637922
122                     122                     106                     100      -0.309416954188312      -0.362133941125876       0.439776419850924
123                     124                     104              105.656854       0.367884499798142       0.464497097090039      -0.438633559517238
124                     124                     104              102.828427      -0.362320558707947      -0.398404848075967   -0.000395574754588545
125                     124                     104                     100       0.365032796775142       0.462300153120846       0.439073383372582
126                     126                     106              105.656854      -0.465406943826164      -0.369767262434917       -0.44146198738333
127                     126                     106              102.828427       0.400570709711393       0.361985363170437     0.00274226241045794
128                     126                     106                     100      -0.464798994415211      -0.363661425999029       0.437241751318714
129                     128                     104              105.656854       0.727617455410393       0.462563951639181      -0.330779667379736
130                     128                     104              102.828427      -0.282312524620604      -0.397270019780543    -0.00130039633772925
131                     128                     104                     100       0.727605761988088       0.460096778910461       0.332783809622748
132                     130                     106              105.656854       -1.23621641074537      -0.328330641521158      -0.853452442247435
133                     130                     106              102.828427      -0.459127241285762       0.323950208346118     0.00208197917826681
134                     130                     106                     100       -1.23764041670476      -0.325432259122903        0.85016815872591
135                     100                     108              105.656854        1.06332193153349       0.116848471747264      -0.799940209860415
136                     100                     108              102.828427       0.637953748475109      -0.117081622163288    -0.00254482058549121
137                     100                     108                     100        1.06083473209973       0.114354471684563       0.804062003652201
138                     102                     110              105.656854      -0.590494317872914      -0.155966750488158      -0.379192121287057
139                     102                     110              102.828427       0.139105042535102       0.156563914200068     0.00552571738452275
140                     102                     110                     100      -0.584046828496837      -0.150666560660058       0.370344309077501
141                     104                     108              105.656854       0.338701283716453       0.190084915531467      -0.370984390912654
142                     104                     108              102.828427      -0.267348978765951      -0.188092325549816    -0.00502659630582116
143                     104                     108                     100       0.334951564272384       0.182379759916129       0.379066930096815
144                     106                     110              105.656854      -0.298879001058172      -0.219954647963543      -0.506897685770813
145                     106                     110              102.828427       0.283572446355032       0.210866724507273      0.0117335400030771
146                     106                     110                     100      -0.288733775355843      -0.199623528534662       0.484978194586524
147                     108                     108              105.656854       0.221712435556276       0.251755375458099      -0.358524192916873
148                     108                     108              102.828427      -0.228827161385415       -0.24482117219858    -0.00521021905959627
149                     108                     108                     100       0.228055600856829        0.23609360337264       0.368386486057672
150                     110                     110              105.656854        -0.1785158535968      -0.258493083717209      -0.490729370191115
151                     110                     110              102.828427       0.215676729806991       0.243740056052301     0.00521866243510163
152                     110                     110                     100      -0.221745711911679      -0.232805370410553       0.474828124957309
153                     112                     108              105.656854       0.175184963709538       0.256533522532637      -0.393887662880613
154                     112                     108              102.828427      -0.198001463925269      -0.269652437550137     0.00818917510536197
155                     112                     108                     100       0.201240397509016        0.26756083710896         0.3782532935647
156                     114                     110              105.656854      -0.179105072435987      -0.184419904238913       -0.38333523328321
157                     114                     110              102.828427       0.209418913341295       0.246955447080141     -0.0266653931595854
158                     114                     110                     100      -0.213530466772245       -0.24958964199179        0.46942125530084
159                     116                     108              105.656854       0.221572066330811       0.251122031973778      -0.425669237761007
160                     116                     108              102.828427      -0.226711565531704      -0.282562238112063      0.0187115938414296
161                     116                     108                     100       0.220394720269221       0.286445151435402       0.389361886973572
162                     118                     110              105.656854      -0.288507539861644      -0.199984164838456       -0.37005313006407
163                     118                     110              102.828427       0.267495111976523       0.259126826724561     -0.0250058497163253
164                     118                     110                     100      -0.249582383904568       -0.26069321155603       0.451542549220335
165                     120                     108              105.656854       0.299828971430638        0.29329785625705      -0.427339328025197
166                     120                     108              102.828427      -0.290269809111453      -0.305312519573877     0.00708955113010167
167                     120                     108                     100       0.273833767157257       0.301387437561849        0.41354058930641
168                     122                     110              105.656854      -0.353442282275221      -0.296058247375429      -0.437262024405856
169                     122                     110              102.828427       0.332694448962107        0.27905743624308     0.00692193501480127
170                     122                     110                     100      -0.314631119984613      -0.266368438500427       0.417793572479839
171                     124                     108              105.656854       0.373496622603712        0.32181922583446      -0.430933070954854
172                     124                     108              102.828427      -0.367287954185854      -0.316950534492621    -0.00550816139448166
173                     124                     108                     100       0.368498184129382       0.305760183730184       0.440923936419217
174                     126                     110              105.656854      -0.435261277666309      -0.274697220284959      -0.434601593058184
175                     126                     110              102.828427       0.379196842681125       0.268182855672959      0.0114860418750529
176                     126                     110                     100      -0.446276261741328      -0.255338987752515       0.413703345542691
177                     128                     108              105.656854        0.68746012717427       0.293642978342331      -0.326651936370333
178                     128                     108              102.828427      -0.246085515404935      -0.295329284484541    -0.00479253100274184
179                     128                     108                     100       0.691327632947791       0.286360851032868       0.334213748014495
180                     130                     110              105.656854        -1.1791090438778      -0.227658053687023      -0.838704084160082
181                     130                     110              102.828427      -0.513283509632186       0.230922628921721     0.00513659311757585
182                     130                     110                     100       -1.18529418364118      -0.222823170011114       0.830596776999284
183                     100                     112              105.656854        1.11891593003025       0.138231238712983      -0.806378501102406
184                     100                     112              102.828427       0.582974509258046      -0.140187392984617    -0.00455138355464017
185                     100                     112                     100        1.11305635652975       0.135839200848471       0.813685033646808
186                     102                     114              105.656854      -0.640002837180006      -0.170516675788133       -0.37161737474591
187                     102                     114              102.828427        0.18573988415653       0.173076023547955      0.0089657562983834
188                     102                     114                     100      -0.627009845021884      -0.167707099469551       0.357154003702659
189                     104                     112              105.656854       0.402664824614243       0.187950632166275      -0.374360352578744
190                     104                     112              102.828427      -0.322918487885302      -0.185927381966284     -0.0122595694308473
191                     104                     112                     100       0.385289400890013       0.177698163168694       0.395439513651165
192                     106                     114              105.656854      -0.358440725065442      -0.209255858589546       -0.51831394197362
193                     106                     114              102.828427       0.322923918266821       0.208091904645209      0.0242552462551656
194                     106                     114                     100      -0.322967331142742      -0.199737240770782       0.465934068333517
195                     108                     112              105.656854       0.284041192426447       0.259217911897718      -0.306232303369769
196                     108                     112              102.828427      -0.262694057303932      -0.224030076354311     -0.0226355674599753
197                     108                     112                     100       0.261582828273702       0.211230957560188       0.389888081081331
198                     110                     114              105.656854      -0.153319949975104      -0.198833279481194      -0.747177595809103
199                     110                     114              102.828427       0.223826985056397       0.226553917578332      0.0176692351302055
200                     110                     114                     100      -0.239671066687942       -0.22017339028809       0.455655996166355
201                     112                     112              105.656854      0.0948699709922676       0.231351188567441      -0.432704961788869