ITEM: TIMESTEP
0
ITEM: NUMBER OF ATOMS
422
ITEM: BOX BOUNDS ff ff ff
0.0000000000000000e+00 2.3200000000000000e+02
0.0000000000000000e+00 2.3200000000000000e+02
0.0000000000000000e+00 2.3200000000000000e+02
ITEM: ATOMS id xu yu zu fx fy fz
1        113.145932193839        115.983520815677              109.456854     0.00255202543281507    -0.00126779760175326     -0.0163611319286124
2        118.827484840071        115.989226241634              109.456854    -0.00522057217977742     -0.0012437178510999      -0.015977331969921
3        117.402344993917        115.987795112765              109.456854     0.00331650467419783     0.00279766085856692     -0.0159187988368469
4        114.571072038949        115.984951942936              109.456854     0.00237955731029643      0.0028462826991309     -0.0155527512141251
5        116.701075167769        114.749724850164              109.456854     0.00318911922348655     0.00446961738089763     -0.0142686783187048
6        115.274826990867        114.748292608712              109.456854     0.00429803527793109     0.00450902123098706     -0.0139383166789276
7        115.272341865028        117.223022205388              109.456854     0.00423505341189978     0.00299305749250312     -0.0143919552697712
8        116.698590041422        117.224454446583              109.456854     0.00314897694617949     0.00297528269764211     -0.0147289393955864
9        114.517756920757        113.548446241175              109.456854    -0.00138699627169387    -0.00858531055754659    -0.00578789897520495
10        117.460553482731        113.551401403886              109.456854      -0.016431048357195    -0.00860015526412775    -0.00479108344578372
11        114.512863550773        118.421345651893              109.456854    -0.00131676252879384      -0.009502066645301    -0.00359938737777515
12        117.455660110655        118.424300814179              109.456854     -0.0160322706530281    -0.00919068755834536    -0.00276095141246449
13        113.127311260236        113.562444587898              109.456854      0.0108636170060886    -0.00940647769723699    -0.00971691539664841
14        113.122448808114        118.404554762274              109.456854      0.0107365483724393    -0.00588433763501441     -0.0079621035129193
15        118.850968226168        113.568192293572              109.456854      -0.026233148589718    -0.00950490227182697    -0.00751302159023483
16        118.846105771496         118.41030247058              109.456854     -0.0257082445143769    -0.00533440181745279    -0.00577625782313716
17        112.426795838139         117.19431994364              109.456854     0.00381028488567269     0.00833306836475983     -0.0147630681304203
18         112.42922905874        114.771279815063              109.456854     0.00373889659609722    0.000856127124287148     -0.0142520546817187
19        119.546621196692        114.778427112272              109.456854     0.00583722339103347    0.000800752608920902     -0.0157240213670116
20        119.544187975028         117.20146724296              109.456854      0.0056365290361909     0.00800746823149548     -0.0161971001535946
21        120.955135022624        114.824435085822              109.456854       0.125127364629684       0.130672040736547     -0.0308666274033789
22        120.952791362251        117.158288229576              109.456854       0.122872266357958     -0.0333150696736638     -0.0355596675010554
23        111.020625673161        114.814458829493              109.456854     -0.0118558452736954       0.131851074248998    -0.00574705506880033
24        111.018282013145        117.148311972274              109.456854     -0.0106651298114217     -0.0287001193816208     -0.0105829423542263
25        121.586726460739        115.991997078118              109.456854     -0.0446525835367404     -0.0257001483966087   -0.000865703475362307
26        110.386690574472        115.980749978664              109.456854     -0.0181572592980731      -0.027369558213376     -0.0167385968484902
27        121.609196045824        118.185922140926              109.456854      -0.138916234486365     -0.0582868204284857      0.0488376205270682
28          121.6136022867        113.798121569695              109.456854      -0.145043582762685     -0.0604751922074079      0.0374299550742231
29        110.359814750727        118.174625487296              109.456854   -0.000461217235804751     -0.0671356503365166      0.0137006277073145
30         110.36422099026         113.78682491673              109.456854     0.00257424558266722     -0.0601598104902128     0.00108005210359416
31        112.599866822243        112.615454800093              109.456854     -0.0251264968611025      0.0170261085076843     0.00268688414042619
32        112.593103500599        119.350483321209              109.456854     -0.0246202123353969      0.0238304579533444    -0.00363938709324226
33        119.380313532952        112.622263734631              109.456854      0.0661737894837726      0.0176868875835115    -0.00369106375343988
34        119.373550207142        119.357292260389              109.456854      0.0640354572992262      0.0218618101220071    -0.00975697618347951
35        114.962286572867         112.56896056388              109.456854      0.0105566719222158      0.0100315590263624    -0.00358443170776794
36        114.955425108682        119.401722146141              109.456854      0.0103098362524571      0.0167539545558436    -0.00780955125996031
37        117.017991924022        112.571024909739              109.456854      0.0152753753885071      0.0101467830186308    -0.00467347031472602
38        117.011130457531        119.403786490585              109.456854       0.014494074123239      0.0163410729287478    -0.00877127898786197
39                     100                     100              105.656854       0.212160331144742       0.213949179292365      -0.975629325323054
40                     100                     100              102.828427       0.432019157684375       0.430484705395934     -0.0003955326934221
41                     100                     100                     100       0.212146545420919       0.213382367895782       0.976309584346518
42                     102                     102              105.656854      -0.344474794867885      -0.347501048180791      -0.278069226084416
43                     102                     102              102.828427       -0.05090691996658     -0.0484386985400726    0.000702675026723282
44                     102                     102                     100      -0.344497983399632      -0.346366298046885       0.276887693416585
45                     104                     100              105.656854      0.0957783117639488       0.960050262439488      -0.808900775137815
46                     104                     100              102.828427     -0.0637828791007115       0.726749619550959   -0.000277482987069776
47                     104                     100                     100      0.0961888103037494       0.959398436953909       0.809351833207532
48                     106                     102              105.656854      -0.149127732866068      -0.514829076230409      -0.381506436683062
49                     106                     102              102.828427        0.14229123984495      0.0664220794922949    0.000351988526467989
50                     106                     102                     100      -0.150220197409861      -0.513679980747702       0.380955441590552
51                     108                     100              105.656854       0.109575760717614        1.06007509944065      -0.801944646762952
52                     108                     100              102.828427      -0.111621083849621       0.639880731442037    0.000283983637641503
53                     108                     100                     100       0.110686122548155        1.06003975134229       0.801416923570071
54                     110                     102              105.656854      -0.143271598975169      -0.581893303508196        -0.3736970401438
55                     110                     102              102.828427        0.14813805907724       0.134865442199987     -0.0010143565869572
56                     110                     102                     100      -0.145711738919789      -0.582678823397246        0.37547768095576
57                     112                     100              105.656854       0.131734141345018        1.10850168678976      -0.810840194896476
58                     112                     100              102.828427      -0.135568153254069       0.589314403490958     0.00122074055902674
59                     112                     100                     100       0.132935366569918        1.10998328845068       0.808714849540745
60                     114                     102              105.656854      -0.163919972507332      -0.619120758057251      -0.361012980867367
61                     114                     102              102.828427        0.16889417585411       0.175232927603092    -0.00267287091561911
62                     114                     102                     100      -0.165391057342141      -0.622986028306691       0.365614336365116
63                     116                     100              105.656854       0.166588862470377        1.14406603738207      -0.821462334243276
64                     116                     100              102.828427      -0.170771998129025         0.5520354762181     0.00172869585940602
65                     116                     100                     100       0.166587508997474        1.14647375193887       0.818476155216421
66                     118                     102              105.656854      -0.209378783512762       -0.65132010594269      -0.347580932700137
67                     118                     102              102.828427       0.214195715083108       0.208479118824082    -0.00267041617352558
68                     118                     102                     100      -0.207903056874434      -0.655178569447309       0.352178037174514
69                     120                     100              105.656854       0.223145222846874        1.18258518256061      -0.835407830858111
70                     120                     100              102.828427      -0.228520216021529       0.512806918764237     0.00121976361599697
71                     120                     100                     100       0.221945029605373        1.18406361496707       0.833284151513212
72                     122                     102              105.656854      -0.288581539498459      -0.688064155731144      -0.330168223383274
73                     122                     102              102.828427        0.29329659604324       0.244430140353549    -0.00101329089347298
74                     122                     102                     100      -0.286148894066727      -0.688845775740002       0.331947006326755
75                     124                     100              105.656854       0.326301681294792        1.23671768399792        -0.8521429481174
76                     124                     100              102.828427      -0.322893276284865       0.459496588490102    0.000285236532744423
77                     124                     100                     100       0.325195183949548        1.23668372547039       0.851613150633585
78                     126                     102              105.656854      -0.461632796367441      -0.727626628665441      -0.332074316344867
79                     126                     102              102.828427       0.397122276778019       0.281598196761925    0.000347386368284327
80                     126                     102                     100      -0.460545628679791       -0.72648532084784       0.331531031136543
81                     128                     100              105.656854       0.708251821603972        1.34069614468344      -0.754701322157813
82                     128                     100              102.828427      -0.280887525891285       0.396130997382556   -0.000274136242468481
83                     128                     100                     100       0.707842655578243        1.34004915197107       0.755146754832913
84                     130                     102              105.656854       -1.34061090019401      -0.708673278723739      -0.755509386720819
85                     130                     102              102.828427      -0.395854814784868       0.280904283101314    0.000696726326325335
86                     130                     102                     100       -1.34058670789934      -0.707546796565254       0.754337830040419
87                     100                     104              105.656854       0.959037216848437      0.0999303608994984      -0.808279855457958
88                     100                     104              102.828427        0.72774129061104     -0.0670674373968132    -0.00107952378823428
89                     100                     104                     100       0.958496868532019      0.0985813362642473       0.810113768506903
90                     102                     106              105.656854       -0.51360746976332      -0.156781151004524      -0.383079112191075
91                     102                     106              102.828427      0.0650512755631851       0.147805899862512     0.00214884777695549
92                     102                     106                     100        -0.5123909500475      -0.153846361843709       0.379463849369118
93                     104                     104              105.656854       0.247134977856642       0.252665013134378      -0.388331135680907
94                     104                     104              102.828427      -0.179955307703047      -0.184118882978645    -0.00129859787046505
95                     104                     104                     100         0.2473659154932       0.250247206455734       0.390493677921985
96                     106                     106              105.656854      -0.233005760600438      -0.244163049986381      -0.504976978611054
97                     106                     106              102.828427       0.225314923551034       0.232651078800345     0.00241297100093392
98                     106                     106                     100      -0.234286572400631      -0.238741632263194       0.500764317722408
99                     108                     104              105.656854       0.173189250762272       0.338349023750107      -0.375211593285976
100                     108                     104              102.828427       -0.17738103173111       -0.26849704701554   -0.000178709884527645
101                     108                     104                     100       0.176303939914113       0.336585952394145       0.375481160439557
102                     110                     106              105.656854      -0.182334602001205      -0.292633066179002      -0.489815491829642
103                     110                     106              102.828427       0.192844222881784       0.285336180121159    -0.00130404354124614
104                     110                     106                     100      -0.191379887655143      -0.291739047789517       0.491999134918957
105                     112                     104              105.656854        0.16714567981461       0.379660519071671      -0.391341280792712
106                     112                     104              102.828427       -0.17448349306769      -0.314827811661002     0.00309570497724995
107                     112                     104                     100       0.172006545549241       0.383668627695251       0.385943592623621
108                     114                     106              105.656854      -0.188712537716328      -0.309681183423847      -0.465992663836899
109                     114                     106              102.828427       0.198080803215828       0.313170106805913    -0.00808297806039798
110                     114                     106                     100      -0.195447077051591      -0.322991490366178        0.48101787913482
111                     116                     104              105.656854       0.198199924997541       0.406082132619293      -0.407110793587145
112                     116                     104              102.828427      -0.203403249701577      -0.345013489279562     0.00521280741511373
113                     116                     104                     100        0.19818941992449       0.414438242587504       0.398008185616109
114                     118                     106              105.656854      -0.240527692744195      -0.331924164815182      -0.450107891430108
115                     118                     106              102.828427        0.24275037868138       0.336080970745423    -0.00806607749809716
116                     118                     106                     100      -0.233758597426199      -0.345187204014476       0.465098364140424
117                     120                     104              105.656854       0.260268418951007       0.436336018639896      -0.422059403964669
118                     120                     104              102.828427      -0.264510596508851      -0.373337203307225     0.00308762869350401
119                     120                     104                     100       0.255412925501588       0.440322130445973       0.416676256970397
120                     122                     106              105.656854      -0.317891252302927      -0.362626765846549       -0.43804613081898
121                     122                     106              102.828427       0.319095500570895       0.357597521537769     -0.0012951101874409
122                     122                     106                     100      -0.308894870091653        -0.3617110521657       0.440214756995259
123                     124                     104              105.656854       0.368043093315957       0.463649261079832      -0.438536932169123
124                     124                     104              102.828427      -0.362285535807852      -0.397705710918363   -0.000175035908649415
125                     124                     104                     100       0.364946463823934       0.461893800192256       0.438799665580895
126                     126                     106              105.656854      -0.466224039180437      -0.368448381198212      -0.441880758666253
127                     126                     106              102.828427       0.401021698004737       0.360886742200349     0.00239518661003577
128                     126                     106                     100      -0.464956523481944      -0.363064456464069       0.437702402281942
129                     128                     104              105.656854       0.728034923944026       0.462155290047144      -0.330480637230206
130                     128                     104              102.828427      -0.282641350220796      -0.396802728701723    -0.00128790651804481
131                     128                     104                     100       0.727804688873461       0.459755184023552       0.332625063788155
132                     130                     106              105.656854       -1.23678637153971      -0.328034505137809      -0.853909577815293
133                     130                     106              102.828427      -0.458597279274001       0.323542909753186     0.00213209424639389
134                     130                     106                     100       -1.23799233547263      -0.325122365760391       0.850322743056865
135                     100                     108              105.656854        1.06272213747342       0.116405711122389      -0.799614076535553
136                     100                     108              102.828427       0.638528085225477      -0.116613744661321    -0.00249082791984394
137                     100                     108                     100        1.06044499100861       0.114003517972021       0.803821412243172
138                     102                     110              105.656854      -0.588933509121015      -0.154950350395744      -0.379753556473162
139                     102                     110              102.828427       0.137902583348522        0.15567483601046     0.00511298541391693
140                     102                     110                     100      -0.583435744088908      -0.150131016115057        0.37096748604674
141                     104                     108              105.656854       0.337520404967786       0.188462217943257      -0.370540531182163
142                     104                     108              102.828427      -0.266594136356681      -0.186804531641657    -0.00450718499981406
143                     104                     108                     100       0.334662582280772       0.181665198589425       0.378432229293979
144                     106                     110              105.656854      -0.294760515278637      -0.214410723267742      -0.506438318657197
145                     106                     110              102.828427       0.282311505092247       0.208164731532119     0.00939143532012357
146                     106                     110                     100      -0.288652156916945      -0.198612481794329       0.486440404892911
147                     108                     108              105.656854       0.222025209520238         0.2473149682138      -0.358793720511397
148                     108                     108              102.828427      -0.229582445522836      -0.242650304471547    -0.00391095627774126
149                     108                     108                     100       0.228654294290342       0.235277752741486       0.367543080255837
150                     110                     110              105.656854      -0.190007950595234      -0.248113462236982      -0.487387614707724
151                     110                     110              102.828427       0.219961283819309       0.241000380411814     0.00240065812058629
152                     110                     110                     100       -0.22352552888916      -0.232233177461324       0.475748843334377
153                     112                     108              105.656854       0.180416896571573       0.258968107571236      -0.393503825900241
154                     112                     108              102.828427      -0.200924637295224      -0.270425958376296     0.00748092075761155
155                     112                     108                     100       0.202504112214982       0.267784831590294       0.378522625763719
156                     114                     110              105.656854      -0.186405447872839      -0.209773991267794      -0.400562135559872
157                     114                     110              102.828427       0.212659666985257        0.25030340804786     -0.0219096421247918
158                     114                     110                     100      -0.214728539142689      -0.250547410740996       0.467771216082893
159                     116                     108              105.656854       0.220254465917738       0.258999742772194      -0.425215177377665
160                     116                     108              102.828427      -0.226107871363943      -0.285686755843048      0.0164578990457463
161                     116                     108                     100       0.220185437109161       0.287409262056981       0.390401184557084
162                     118                     110              105.656854      -0.276530592454986       -0.22094931809794      -0.383472718672262
163                     118                     110              102.828427       0.262748110593967       0.261642273231365     -0.0218280368478626
164                     118                     110                     100      -0.247962240641745      -0.261514107967107       0.450398530280503
165                     120                     108              105.656854       0.294598117982771       0.292697374310631       -0.42820583693145
166                     120                     108              102.828427      -0.287276445810576      -0.305105625441532     0.00743037736345856
167                     120                     108                     100       0.272551477049767       0.301374525655117       0.413344133798316
168                     122                     110              105.656854      -0.346390655123265      -0.281750574591921      -0.431048722083849
169                     122                     110              102.828427       0.329648032482224       0.275581369757523     0.00245106781393881
170                     122                     110                     100      -0.313236052180157      -0.265723852762779       0.419312797358008
171                     124                     108              105.656854         0.3748145635979       0.316885430140965      -0.431186221496686
172                     124                     108              102.828427      -0.367368615954763      -0.314546027691689    -0.00389469748215293
173                     124                     108                     100       0.368269011524043        0.30490834028664        0.43987368603111
174                     126                     110              105.656854      -0.440687793621868      -0.270208051959552      -0.434950987260489
175                     126                     110              102.828427       0.381320729435213       0.265880914800489     0.00933118741322208
176                     126                     110                     100      -0.446780602608929      -0.254523789035021       0.415136341799391
177                     128                     108              105.656854       0.689005344587608       0.292543332371909      -0.325851796284454
178                     128                     108              102.828427      -0.247177628523136      -0.294318362303073    -0.00447286821383085
179                     128                     108                     100       0.691842049145969        0.28580051258754       0.333677474003922
180                     130                     110              105.656854       -1.18055690249664      -0.227290300634639      -0.839716345545155
181                     130                     110              102.828427      -0.512012139007741       0.230422168562818     0.00507403719046959
182                     130                     110                     100       -1.18600858262306      -0.222507014426744       0.831001081308967
183                     100                     112              105.656854         1.1176533560412       0.137841368596839      -0.805843147912647
184                     100                     112              102.828427       0.584110673586147      -0.139795851512863    -0.00436358799870095
185                     100                     112                     100        1.11235963094837       0.135574982406219       0.813233868825184
186                     102                     114              105.656854      -0.636928590158867      -0.170043597121546      -0.372402537286756
187                     102                     114              102.828427       0.183569974454647       0.172678516203003      0.0081165297487691
188                     102                     114                     100      -0.626014341327121      -0.167498244590183       0.358168807987837
189                     104                     112              105.656854       0.397622440349288       0.185580930337793       -0.37398226893591
190                     104                     112              102.828427       -0.32043714656169      -0.184442470496194     -0.0104260653662687
191                     104                     112                     100       0.384507324630419       0.177032868460713       0.393971936989425
192                     106                     114              105.656854      -0.344045019335253      -0.206850302682583      -0.513874965678073
193                     106                     114              102.828427       0.319376583011425       0.206758872441832      0.0183504835800031
194                     106                     114                     100      -0.322606961562765      -0.199295652666458       0.468669265603371
195                     108                     112              105.656854       0.266366125342691       0.238366091689723      -0.327676128362272
196                     108                     112              102.828427      -0.263064272224665       -0.22045789894597     -0.0153150211810819
197                     108                     112                     100       0.262568074321844       0.210336138194437       0.387406156625649
198                     110                     114              105.656854      -0.159076675996248      -0.203339125273203      -0.507085509919492
199                     110                     114              102.828427       0.232518245301286       0.226219452260601     0.00864092258143053
200                     110                     114                     100      -0.242648964800583      -0.220050423286992        0.45755417713978
201                     112                     112              105.656854        0.14101934585292       0.226161369198318      -0.420780616367465