ITEM: TIMESTEP
0
ITEM: NUMBER OF ATOMS
422
ITEM: BOX BOUNDS pp pp pp
0.0000000000000000e+00 3.2000000000000000e+01
0.0000000000000000e+00 3.2000000000000000e+01
0.0000000000000000e+00 3.2000000000000000e+01
ITEM: ATOMS id xu yu zu fx fy fz
1        13.1617116602102        15.9993002820489        8.67262946637157       -1.06948718125071       -0.69806099676217      -0.100759531271317
2        18.8128722278464        15.9746136294097        8.64223738777529        4.05214956037904        4.06559826145722       0.926557625765983
3        17.4369735871978        16.0224237060457        8.69147859328079       -4.35129635334649       -4.12358752493362      -0.958199274000711
4        14.5693942283159        15.9832741323027        8.65517218936687        1.07547164584844        1.58576219421633       0.312568902912235
5        16.7059600405331        14.7546097229276        8.66173487276391        3.13656487741152        3.25183151202868       0.768135663623135
6        15.3097419096529        14.7832075274973        8.69176491878544       -2.91603319841807       -3.30494166016777      -0.665511073660417
7        15.2570307370263        17.2077110773864        8.64153887199872        1.85523001751158        2.28253311893428       0.495529236434963
8         16.685584995492        17.2114494006529         8.6438449540704        1.54344320769597         1.6432421834159       0.322410204286243
9        14.5292443382355        13.5599336586532         8.6683374174781        2.24190211399284        1.85792406857704       0.477533848971701
10        17.4969744489551        13.5878223701098        8.69327096622375       -4.40504607731791       -4.73089200791004      -0.755293572893904
11        14.5589824542971        18.4674645554172        8.70296890352418        -3.8641594722546       -4.19912907303665      -0.658576837139262
12        17.4484975899813         18.417138293505        8.64968747932614      -0.878505500814449       -0.45494363649599      -0.153453339797027
13        13.1719122216992         13.607045549361        8.70145096146342       -3.39587945717555         -3.607828073412      -0.622958521965712
14        13.1358038858614         18.417909840022         8.6702050777477       0.222961573706809      -0.539697375571716     -0.0686007703642553
15        18.8404684660518        13.5576925334559        8.64635023988377         1.8023760108272        1.45328608130769       0.333538956367175
16        18.8224638641175        18.3866605632017        8.63320809262127        4.11734291730576        5.18514273306186       0.929041433968316
17        12.4243872002162        17.1919113057172        8.65444136207726        1.80234869418194        1.88083934210235       0.216887275602325
18        12.4523314909326        14.7943822472564          8.679952432193      -0.872545670405593       -1.01857135695693      -0.199077277247694
19        19.5268507979512         14.758656713531        8.63707960125892       0.287196765314095       0.292763838498448     -0.0962704796430061
20        19.5862915537543        17.2435708216856          8.698953578726       -6.05886148131609       -6.78492618120543       -1.27970726709571
21        20.9367059713711        14.8060060345694        8.63842094874702       0.403383072439978       0.472928036242069       0.146404564227242
22        20.9246048855634        17.1301017528884        8.62866352331264        1.89530071714386         1.4621687882262       0.634499463581777
23        11.0106168182457        14.8044499745771        8.64684114508457        2.69224897608395         2.4165972213218       0.799700051299708
24        11.0292082377636        17.1592381968918        8.66777622461817       0.453426160670908      -0.176696681180616     -0.0340652929373818
25        21.5722313713057        15.9775019886839        8.64235491056622       -1.05332119061368      -0.829253486539398      -0.317570321465227
26        10.4281396062195        16.0221990104123        8.69829903174789       -2.78719664517222       -3.85885137835795      -0.581674307845264
27        21.5591987810742        18.1359248761765        8.60685273525019        1.65448657909259        1.45531274824497      -0.150373760080101
28        21.6013475441765         13.785866827171        8.64459525747632     -0.0339237389374745      -0.189627779565358     -0.0149648928024747
29        10.3366361804508        18.1514469170196        8.63367142972331       0.490844858209732        1.08896605665514       0.119131533788951
30        10.3482730939071        13.7708770203763        8.64090210364657      0.0189734544032499       0.721756479659184     -0.0251724026168773
31        12.5813041644644        12.5968921423151        8.63828734222177        1.53974373105434        2.25389377475167       0.327474743510632
32        12.5561473532067        19.3135271738167        8.61989385260741       0.230210908212109       0.745874547955392       0.109338882291131
33        19.4137668880966         12.655717089776        8.69030335514469      -0.439898714032007      -0.806114275035454      -0.140869808934378
34        19.4211637993644        19.4049058526109        8.70446359222198       -1.96037510234821       -2.40675902354739      -0.423368912771957
35         14.983206836904        12.5898808279166        8.67777026403708      -0.386432759009684      -0.205702380943478     -0.0688342680862095
36        14.9496500962397        19.3959471336985        8.65107498755769        1.26574319014041        1.75909333155309      0.0655535363224801
37        16.9895077164579        12.5425407021757        8.62836579243637        1.69308081435179        2.31384691161659       0.378425464080463
38         17.019710724359        19.4123667574126          8.665430266828     -0.0014673035653552      -0.253778338203959     -0.0474294744155728
39                       0                       0                5.656854                       0                       0                       0
40                       0                       0                2.828427                       0                       0                       0
41                       0                       0                       0                       0                       0                       0
42                       2                       2                5.656854                       0                       0                       0
43                       2                       2                2.828427                       0                       0                       0
44                       2                       2                       0                       0                       0                       0
45                       4                       0                5.656854                       0                       0                       0
46                       4                       0                2.828427                       0                       0                       0
47                       4                       0                       0                       0                       0                       0
48                       6                       2                5.656854                       0                       0                       0
49                       6                       2                2.828427                       0                       0                       0
50                       6                       2                       0                       0                       0                       0
51                       8                       0                5.656854                       0                       0                       0
52                       8                       0                2.828427                       0                       0                       0
53                       8                       0                       0                       0                       0                       0
54                      10                       2                5.656854                       0                       0                       0
55                      10                       2                2.828427                       0                       0                       0
56                      10                       2                       0                       0                       0                       0
57                      12                       0                5.656854                       0                       0                       0
58                      12                       0                2.828427                       0                       0                       0
59                      12                       0                       0                       0                       0                       0
60                      14                       2                5.656854                       0                       0                       0
61                      14                       2                2.828427                       0                       0                       0
62                      14                       2                       0                       0                       0                       0
63                      16                       0                5.656854                       0                       0                       0
64                      16                       0                2.828427                       0                       0                       0
65                      16                       0                       0                       0                       0                       0
66                      18                       2                5.656854                       0                       0                       0
67                      18                       2                2.828427                       0                       0                       0
68                      18                       2                       0                       0                       0                       0
69                      20                       0                5.656854                       0                       0                       0
70                      20                       0                2.828427                       0                       0                       0
71                      20                       0                       0                       0                       0                       0
72                      22                       2                5.656854                       0                       0                       0
73                      22                       2                2.828427                       0                       0                       0
74                      22                       2                       0                       0                       0                       0
75                      24                       0                5.656854                       0                       0                       0
76                      24                       0                2.828427                       0                       0                       0
77                      24                       0                       0                       0                       0                       0
78                      26                       2                5.656854                       0                       0                       0
79                      26                       2                2.828427                       0                       0                       0
80                      26                       2                       0                       0                       0                       0
81                      28                       0                5.656854                       0                       0                       0
82                      28                       0                2.828427                       0                       0                       0
83                      28                       0                       0                       0                       0                       0
84                      30                       2                5.656854                       0                       0                       0
85                      30                       2                2.828427                       0                       0                       0
86                      30                       2                       0                       0                       0                       0
87                       0                       4                5.656854                       0                       0                       0
88                       0                       4                2.828427                       0                       0                       0
89                       0                       4                       0                       0                       0                       0
90                       2                       6                5.656854                       0                       0                       0
91                       2                       6                2.828427                       0                       0                       0
92                       2                       6                       0                       0                       0                       0
93                       4                       4                5.656854                       0                       0                       0
94                       4                       4                2.828427                       0                       0                       0
95                       4                       4                       0                       0                       0                       0
96                       6                       6                5.656854                       0                       0                       0
97                       6                       6                2.828427                       0                       0                       0
98                       6                       6                       0                       0                       0                       0
99                       8                       4                5.656854                       0                       0                       0
100                       8                       4                2.828427                       0                       0                       0
101                       8                       4                       0                       0                       0                       0
102                      10                       6                5.656854                       0                       0                       0
103                      10                       6                2.828427                       0                       0                       0
104                      10                       6                       0                       0                       0                       0
105                      12                       4                5.656854                       0                       0                       0
106                      12                       4                2.828427                       0                       0                       0
107                      12                       4                       0                       0                       0                       0
108                      14                       6                5.656854                       0                       0                       0
109                      14                       6                2.828427                       0                       0                       0
110                      14                       6                       0                       0                       0                       0
111                      16                       4                5.656854                       0                       0                       0
112                      16                       4                2.828427                       0                       0                       0
113                      16                       4                       0                       0                       0                       0
114                      18                       6                5.656854                       0                       0                       0
115                      18                       6                2.828427                       0                       0                       0
116                      18                       6                       0                       0                       0                       0
117                      20                       4                5.656854                       0                       0                       0
118                      20                       4                2.828427                       0                       0                       0
119                      20                       4                       0                       0                       0                       0
120                      22                       6                5.656854                       0                       0                       0
121                      22                       6                2.828427                       0                       0                       0
122                      22                       6                       0                       0                       0                       0
123                      24                       4                5.656854                       0                       0                       0
124                      24                       4                2.828427                       0                       0                       0
125                      24                       4                       0                       0                       0                       0
126                      26                       6                5.656854                       0                       0                       0
127                      26                       6                2.828427                       0                       0                       0
128                      26                       6                       0                       0                       0                       0
129                      28                       4                5.656854                       0                       0                       0
130                      28                       4                2.828427                       0                       0                       0
131                      28                       4                       0                       0                       0                       0
132                      30                       6                5.656854                       0                       0                       0
133                      30                       6                2.828427                       0                       0                       0
134                      30                       6                       0                       0                       0                       0
135                       0                       8                5.656854                       0                       0                       0
136                       0                       8                2.828427                       0                       0                       0
137                       0                       8                       0                       0                       0                       0
138                       2                      10                5.656854                       0                       0                       0
139                       2                      10                2.828427                       0                       0                       0
140                       2                      10                       0                       0                       0                       0
141                       4                       8                5.656854                       0                       0                       0
142                       4                       8                2.828427                       0                       0                       0
143                       4                       8                       0                       0                       0                       0
144                       6                      10                5.656854                       0                       0                       0
145                       6                      10                2.828427                       0                       0                       0
146                       6                      10                       0                       0                       0                       0
147                       8                       8                5.656854                       0                       0                       0
148                       8                       8                2.828427                       0                       0                       0
149                       8                       8                       0                       0                       0                       0
150                      10                      10                5.656854                       0                       0                       0
151                      10                      10                2.828427                       0                       0                       0
152                      10                      10                       0                       0                       0                       0
153                      12                       8                5.656854                       0                       0                       0
154                      12                       8                2.828427                       0                       0                       0
155                      12                       8                       0                       0                       0                       0
156                      14                      10                5.656854                       0                       0                       0
157                      14                      10                2.828427                       0                       0                       0
158                      14                      10                       0                       0                       0                       0
159                      16                       8                5.656854                       0                       0                       0
160                      16                       8                2.828427                       0                       0                       0
161                      16                       8                       0                       0                       0                       0
162                      18                      10                5.656854                       0                       0                       0
163                      18                      10                2.828427                       0                       0                       0
164                      18                      10                       0                       0                       0                       0
165                      20                       8                5.656854                       0                       0                       0
166                      20                       8                2.828427                       0                       0                       0
167                      20                       8                       0                       0                       0                       0
168                      22                      10                5.656854                       0                       0                       0
169                      22                      10                2.828427                       0                       0                       0
170                      22                      10                       0                       0                       0                       0
171                      24                       8                5.656854                       0                       0                       0
172                      24                       8                2.828427                       0                       0                       0
173                      24                       8                       0                       0                       0                       0
174                      26                      10                5.656854                       0                       0                       0
175                      26                      10                2.828427                       0                       0                       0
176                      26                      10                       0                       0                       0                       0
177                      28                       8                5.656854                       0                       0                       0
178                      28                       8                2.828427                       0                       0                       0
179                      28                       8                       0                       0                       0                       0
180                      30                      10                5.656854                       0                       0                       0
181                      30                      10                2.828427                       0                       0                       0
182                      30                      10                       0                       0                       0                       0
183                       0                      12                5.656854                       0                       0                       0
184                       0                      12                2.828427                       0                       0                       0
185                       0                      12                       0                       0                       0                       0
186                       2                      14                5.656854                       0                       0                       0
187                       2                      14                2.828427                       0                       0                       0
188                       2                      14                       0                       0                       0                       0
189                       4                      12                5.656854                       0                       0                       0
190                       4                      12                2.828427                       0                       0                       0
191                       4                      12                       0                       0                       0                       0
192                       6                      14                5.656854                       0                       0                       0
193                       6                      14                2.828427                       0                       0                       0
194                       6                      14                       0                       0                       0                       0
195                       8                      12                5.656854                       0                       0                       0
196                       8                      12                2.828427                       0                       0                       0
197                       8                      12                       0                       0                       0                       0
198                      10                      14                5.656854                       0                       0                       0
199                      10                      14                2.828427                       0                       0                       0
200                      10                      14                       0                       0                       0                       0
201                      12                      12                5.656854                       0                       0                       0