ITEM: TIMESTEP
0
ITEM: NUMBER OF ATOMS
422
ITEM: BOX BOUNDS pp pp pp
0.0000000000000000e+00 3.2000000000000000e+01
0.0000000000000000e+00 3.2000000000000000e+01
0.0000000000000000e+00 3.2000000000000000e+01
ITEM: ATOMS id xu yu zu fx fy fz
1        13.1459321938386        15.9835208156773                 7.95685     -0.0400512583105313     0.00476674651239527       0.222047607147576
2        18.8274848400711        15.9892262416344                 7.95685      0.0405460389430539      0.0032244415866266       0.224372105391933
3         17.402344993917         15.987795112765                 7.95685     -0.0402370049323649     0.00466428620343579       0.246737457861055
4         14.571072038949        15.9849519429358                 7.95685      0.0396028893938377     0.00588317833802161       0.249401286337422
5        16.7010751677692        14.7497248501637                 7.95685      -0.225649269513392       0.131378142308752       0.470310746816622
6        15.2748269908674        14.7482926087119                 7.95685       0.232819849386261       0.137503501970147       0.487725041746221
7        15.2723418650276        17.2230222053877                 7.95685       0.226018746748701      -0.138755081435166       0.477633138121297
8        16.6985900414216        17.2244544465825                 7.95685      -0.218430378385096      -0.131249573134347       0.458574007858067
9        14.5177569207574        13.5484462411751                 7.95685       0.344772594566289       -0.30057281118575        1.52997836990536
10        17.4605534827313        13.5514014038861                 7.95685      -0.353699680517264      -0.293975435434182        1.50706769925291
11        14.5128635507729         18.421345651893                 7.95685       0.349873901280668       0.287294821318512        1.56625065731141
12        17.4556601106552        18.4243008141789                 7.95685      -0.361314908557345       0.281442086304198        1.52499361029406
13        13.1273112602358        13.5624445878976                 7.95685      -0.403607996659178      -0.201793130482407        1.07861381988667
14        13.1224488081137        18.4045547622743                 7.95685      -0.411792998243816       0.189286781336116        1.09333321478385
15         18.850968226168        13.5681922935721                 7.95685       0.406353671200461      -0.205629252772154        1.11155858385193
16        18.8461057714963        18.4103024705805                 7.95685       0.412149401295564       0.199307185721053         1.1325556175912
17         12.426795838139        17.1943199436399                 7.95685      -0.131479462928017     -0.0749931781196642       0.307662283013933
18        12.4292290587396        14.7712798150634                 7.95685      -0.137716577993536      0.0754880242990942       0.315639595852477
19        19.5466211966922        14.7784271122721                 7.95685       0.144185715151128      0.0794449306434949       0.324157206044765
20        19.5441879750283        17.2014672429596                 7.95685       0.141544408816141     -0.0798128969075509       0.320795758538181
21        20.9551350226241        14.8244350858224                 7.95685      -0.261810064669933       0.206194949541127       0.625436719789399
22        20.9527913622507        17.1582882295758                 7.95685      -0.255862249729223      -0.205292346838871       0.612543448136092
23        11.0206256731611        14.8144588294926                 7.95685       0.268765478204868       0.214082239428534       0.652033165754026
24        11.0182820131454        17.1483119722736                 7.95685       0.256895846240608      -0.214531397659822       0.629140913601334
25        21.5867264607395        15.9919970781177                 7.95685     -0.0136644210510364     0.00150204678470275       0.099153969828106
26        10.3866905744716        15.9807499786644                 7.95685      0.0130621855667396     0.00366915031306358       0.100186662506845
27         21.609196045824        18.1859221409264                 7.95685      -0.141179784890194      0.0671105397153561       0.814956152128618
28        21.6136022867001        13.7981215696947                 7.95685      -0.139280742553466     -0.0727142362964495       0.813192177160396
29        10.3598147507275        18.1746254872963                 7.95685       0.132803760439235      0.0644086936117114       0.832663763484652
30        10.3642209902605        13.7868249167297                 7.95685        0.13251837556328     -0.0775151197997913       0.820870567126298
31        12.5998668222426        12.6154548000933                 7.95685       -0.00786358588528    -0.00775151061269299      0.0155871838060056
32        12.5931035005993        19.3504833212092                 7.95685    -0.00850677042203395     0.00807859838814101       0.016201383174149
33        19.3803135329519        12.6222637346313                 7.95685     0.00830281986381841    -0.00828314388613204      0.0162060651533679
34        19.3735502071424         19.357292260389                 7.95685     0.00886896901236035     0.00873806613392908      0.0168793754537946
35        14.9622865728669        12.5689605638796                 7.95685      0.0118753551123448     -0.0181277258125692      0.0270580270623022
36         14.955425108682        19.4017221461408                 7.95685      0.0127907080533226      0.0192605969502566      0.0290365490388451
37        17.0179919240215        12.5710249097393                 7.95685     -0.0117871485632712     -0.0176246097133687      0.0264578647547975
38         17.011130457531        19.4037864905846                 7.95685      -0.012470172759675      0.0181912359386036       0.027612200671175
39                       0                       0                5.656854                       0                       0                       0
40                       0                       0                2.828427                       0                       0                       0
41                       0                       0                       0                       0                       0                       0
42                       2                       2                5.656854    6.76480377339112e-10     9.5329329253543e-10    1.86018777333858e-10
43                       2                       2                2.828427                       0                       0                       0
44                       2                       2                       0                       0                       0                       0
45                       4                       0                5.656854                       0                       0                       0
46                       4                       0                2.828427                       0                       0                       0
47                       4                       0                       0                       0                       0                       0
48                       6                       2                5.656854    2.21516778794312e-08    4.48321697738042e-08    8.87121175551144e-09
49                       6                       2                2.828427     1.0057083552484e-09    2.06357677820478e-09    9.16866698861771e-10
50                       6                       2                       0    4.58572180066721e-10    1.00188984389489e-09    7.02291597900667e-10
51                       8                       0                5.656854     8.2334892852181e-10    5.82998700196229e-11    4.43468163730066e-10
52                       8                       0                2.828427    8.38097287967914e-10    7.06225791087621e-11    1.19468124688832e-09
53                       8                       0                       0                       0                       0                       0
54                      10                       2                5.656854     9.8774690693094e-08    3.82132970552631e-07    7.74784595613991e-08
55                      10                       2                2.828427    4.45067172352193e-09    1.74245592934344e-08    7.86436202668551e-09
56                      10                       2                       0    2.55880334036331e-09    9.55922126555596e-09    6.80366130666167e-09
57                      12                       0                5.656854    1.69133771240166e-09    2.75937169204643e-10    2.16218014752481e-09
58                      12                       0                2.828427    2.38249130256178e-09    4.13347605256022e-10    7.57713234615131e-09
59                      12                       0                       0    5.68994662816454e-12    2.53010296978109e-12     7.5891773347198e-11
60                      14                       2                5.656854    6.17038302425392e-08    9.50810609471168e-07    1.95898354915747e-07
61                      14                       2                2.828427    2.79030706059264e-09    4.21034346988803e-08    1.92391457416439e-08
62                      14                       2                       0    1.71834960318048e-09    2.30192911020143e-08    1.65141991161398e-08
63                      16                       0                5.656854   -9.44226055259696e-12    3.70328958419497e-10    3.28366567529508e-09
64                      16                       0                2.828427     -1.550080682981e-11    5.66995959840176e-10    1.19740629407992e-08
65                      16                       0                       0   -2.31189257321643e-13    4.17653392387706e-12    1.56061704346569e-10
66                      18                       2                5.656854   -6.32031682702178e-08    9.45338302192148e-07    1.94731373862314e-07
67                      18                       2                2.828427   -2.85727560149274e-09    4.18800172655167e-08    1.91329089768547e-08
68                      18                       2                       0   -1.75475600457123e-09    2.29110382856901e-08    1.64331645983515e-08
69                      20                       0                5.656854   -1.69768711968697e-09     2.0921253782224e-10    2.15001939672651e-09
70                      20                       0                2.828427   -2.39930231447883e-09    3.04411545596676e-10    7.54031270353853e-09
71                      20                       0                       0   -5.93133252039731e-12    1.55764530675212e-12    7.57513440165569e-11
72                      22                       2                5.656854   -9.78324073900899e-08    3.75742738352611e-07    7.61433719732151e-08
73                      22                       2                2.828427    -4.4135206889513e-09    1.71534261850247e-08    7.73800676637472e-09
74                      22                       2                       0   -2.54066857984461e-09    9.42677494208785e-09    6.70593599618638e-09
75                      24                       0                5.656854   -8.16895008229434e-10    3.77283895702953e-11    4.37827515318392e-10
76                      24                       0                2.828427   -8.34577540186699e-10    4.05168888051475e-11    1.18215221615824e-09
77                      24                       0                       0                       0                       0                       0
78                      26                       2                5.656854    -2.1657974508193e-08    4.36773057014266e-08     8.6370084372646e-09
79                      26                       2                2.828427   -9.84754504262107e-10    2.01346268740009e-09     8.9399015304046e-10
80                      26                       2                       0    -4.5000655379045e-10    9.79657507842992e-10    6.86171103180777e-10
81                      28                       0                5.656854                       0                       0                       0
82                      28                       0                2.828427                       0                       0                       0
83                      28                       0                       0                       0                       0                       0
84                      30                       2                5.656854   -6.55499568840358e-10    9.22167522510448e-10    1.79772822357756e-10
85                      30                       2                2.828427                       0                       0                       0
86                      30                       2                       0                       0                       0                       0
87                       0                       4                5.656854    6.88724866597966e-12    3.72983190340295e-10    8.76049366723561e-11
88                       0                       4                2.828427                       0                       0                       0
89                       0                       4                       0                       0                       0                       0
90                       2                       6                5.656854    1.27027914244249e-07    1.16778705654892e-07    3.32931969511809e-08
91                       2                       6                2.828427    5.88314650346639e-09    5.33748982666701e-09    3.40009793653064e-09
92                       2                       6                       0    3.22494703314981e-09    2.93239609905519e-09    2.94134896457319e-09
93                       4                       4                5.656854    1.41156774384088e-08    1.93026823775891e-08    4.51100241520844e-09
94                       4                       4                2.828427    2.15232645954349e-08    2.95652450138274e-08    1.53644452008905e-08
95                       4                       4                       0    2.77837866060865e-10     3.8620283111045e-10    3.22471332525319e-10
96                       6                       6                5.656854    4.44325706744835e-06    6.59929985332595e-06    1.93194814699127e-06
97                       6                       6                2.828427    1.57273231401596e-07    2.30505752984618e-07    1.49549593186769e-07
98                       6                       6                       0    7.29923872277348e-08    1.05799608275909e-07    1.05941356578549e-07
99                       8                       4                5.656854    1.69012637805938e-07    3.97838369041241e-07    9.56076118330216e-08
100                       8                       4                2.828427    2.18778923811586e-07    5.10852178021292e-07     2.7219108567091e-07
101                       8                       4                       0    3.56860389513414e-09    8.34216004094911e-09    6.89497429026682e-09
102                      10                       6                5.656854    3.07674692535347e-05    9.19625373729252e-05    2.84225320055712e-05
103                      10                       6                2.828427    8.34851760153971e-07     2.4590968906016e-06    1.67018600924027e-06
104                      10                       6                       0    2.97460752911868e-07    8.56429256715644e-07     8.8707187871275e-07
105                      12                       4                5.656854    3.48888228415215e-07    2.10754550521282e-06    5.23495986181921e-07
106                      12                       4                2.828427    4.03600425095606e-07    2.36787497752207e-06    1.29984794488198e-06
107                      12                       4                       0    5.97668404152846e-09    3.41817238801888e-08    2.88546807088526e-08
108                      14                       6                5.656854    1.72045069024795e-05    0.000267294449675845    8.54657603384471e-05
109                      14                       6                2.828427    4.62104217275827e-07    6.36595415963179e-06    4.46144682820216e-06
110                      14                       6                       0    1.63298822051394e-07    1.97747731612022e-06    2.10385886962446e-06
111                      16                       4                5.656854   -3.30114521104254e-09    3.17181841006331e-06    7.95857360225665e-07
112                      16                       4                2.828427   -3.64880495300821e-09    3.49323132632491e-06    1.93673292948994e-06
113                      16                       4                       0   -5.19667315438531e-11    4.94786219996361e-08    4.21168187261559e-08
114                      18                       6                5.656854   -1.77144794741884e-05    0.000265644858961992    8.49002052890473e-05
115                      18                       6                2.828427   -4.74368656692367e-07    6.33213367781574e-06    4.43593092399389e-06
116                      18                       6                       0   -1.67164842014127e-07    1.96866982204298e-06    2.09372638000504e-06
117                      20                       4                5.656854   -3.49115015475248e-07    2.08191344721609e-06    5.16849146296572e-07
118                      20                       4                2.828427   -4.04201357088052e-07    2.34198957183687e-06    1.28498169828786e-06
119                      20                       4                       0   -5.99240296679278e-09     3.3857984020558e-08    2.85676011495157e-08
120                      22                       6                5.656854   -3.03875547499327e-05    9.01739732501306e-05    2.78422964202211e-05
121                      22                       6                2.828427   -8.26615612208746e-07    2.41759547511691e-06    1.64050938995519e-06
122                      22                       6                       0   -2.95281338953699e-07    8.44282115194479e-07    8.73767342862132e-07
123                      24                       4                5.656854   -1.65894366809833e-07     3.8859258973968e-07    9.33128140367228e-08
124                      24                       4                2.828427   -2.15165112100223e-07    4.99999199354807e-07    2.66208244589375e-07
125                      24                       4                       0   -3.51863382238002e-09    8.18622355266966e-09    6.76104696901054e-09
126                      26                       6                5.656854   -4.32540411994611e-06    6.40250351266256e-06    1.87224273355599e-06
127                      26                       6                2.828427   -1.53565616940489e-07    2.24329402669373e-07    1.45387824246439e-07
128                      26                       6                       0   -7.15279758616673e-08    1.03344761422222e-07    1.03377989075703e-07
129                      28                       4                5.656854   -1.37119470638682e-08    1.87036875409116e-08    4.36715867410812e-09
130                      28                       4                2.828427   -2.09499402883965e-08    2.87069637075406e-08    1.49053053104644e-08
131                      28                       4                       0   -2.71264742020457e-10    3.76190391807464e-10     3.1379341504887e-10
132                      30                       6                5.656854   -1.22716896123608e-07     1.1271986076127e-07    3.21002973133662e-08
133                      30                       6                2.828427   -5.69992865665203e-09    5.16337125350505e-09    3.28540446242303e-09
134                      30                       6                       0   -3.13519220554666e-09    2.84680230618767e-09    2.85196145363932e-09
135                       0                       8                5.656854    5.07371428028175e-10    1.60970150268753e-08    5.88226783179397e-09
136                       0                       8                2.828427    6.69344357121069e-10    2.27065607664589e-08    1.87441509549191e-08
137                       0                       8                       0    7.57897163209187e-12    2.79267349273069e-10    3.83622584076248e-10
138                       2                      10                5.656854    4.36619486966706e-06    2.20883056268589e-06    1.15975730018285e-06
139                       2                      10                2.828427    1.58129284969719e-07    8.10938165546607e-08     9.3261309201718e-08
140                       2                      10                       0    7.71806722715043e-08    3.98595789729748e-08    6.94173502406942e-08
141                       4                       8                5.656854    1.40618423886933e-06    1.25103968307275e-06    4.71720651218497e-07
142                       4                       8                2.828427     1.5081524795973e-06    1.33683420652177e-06    1.11232559367336e-06
143                       4                       8                       0    2.08574082037562e-08    1.84254291111897e-08    2.34645482477796e-08
144                       6                      10                5.656854     0.00043422930196472    0.000371609639152063    0.000207245389320777
145                       6                      10                2.828427    8.18795147207168e-06    6.95796549783899e-06    8.41528812426892e-06
146                       6                      10                       0    2.06253687614894e-06    1.73680896174874e-06    3.14956079710534e-06
147                       8                       8                5.656854    3.50282137149763e-05    5.94318749723295e-05    2.35448329306201e-05
148                       8                       8                2.828427    2.40829802928349e-05    3.95482628027909e-05    3.43935180599702e-05
149                       8                       8                       0    2.11555689759167e-07    3.35574575243547e-07    4.43307592520353e-07
150                      10                      10                5.656854     0.00476975514178795     0.00944989520434239     0.00578167310713441
151                      10                      10                2.828427    5.63600334247775e-05    0.000109912458366871     0.00014392259211206
152                      10                      10                       0    8.95636612752093e-06     1.6412771649446e-05    3.16604393482994e-05
153                      12                       8                5.656854    0.000100426630728628    0.000470784367598301     0.00020417804275295
154                      12                       8                2.828427     5.0255200933807e-05    0.000224818341127373    0.000209674889046317
155                      12                       8                       0    3.41945245010821e-07    1.43959854010682e-06    2.00494369383675e-06
156                      14                      10                5.656854     0.00149096481994622      0.0204201698625834      0.0133169527226048
157                      14                      10                2.828427    2.15184232286336e-05    0.000274480493332188    0.000393141446248222
158                      14                      10                       0    3.80624609001393e-06    3.53161469656945e-05    7.26418578280576e-05
159                      16                       8                5.656854   -7.56150128666054e-07    0.000694516018969628    0.000308454245229214
160                      16                       8                2.828427   -3.68123892424008e-07    0.000321365154272081    0.000306684859703497
161                      16                       8                       0   -2.42560198231199e-09    2.00109000375752e-06    2.84491847150852e-06
162                      18                      10                5.656854    -0.00156163639044901      0.0204114131911363      0.0133084137661716
163                      18                      10                2.828427   -2.22895121434275e-05    0.000273509153662488    0.000391381091870544
164                      18                      10                       0   -3.90348334947611e-06    3.52124594488001e-05    7.23731274928589e-05
165                      20                       8                5.656854    -0.00010043299790373    0.000464456173349597    0.000201194579122055
166                      20                       8                2.828427   -5.03534897876571e-05    0.000222409570128335    0.000207211551573931
167                      20                       8                       0   -3.43068262151493e-07    1.42731599663745e-06     1.9860416061648e-06
168                      22                      10                5.656854    -0.00471674392377772     0.00929041958786306     0.00567217679952058
169                      22                      10                2.828427   -5.58553139309501e-05    0.000108192848395778    0.000141385013835246
170                      22                      10                       0     -8.904629665633e-06    1.62128581194963e-05     3.1223608680303e-05
171                      24                       8                5.656854   -3.42415934203311e-05    5.78131684980435e-05    2.28677784186367e-05
172                      24                       8                2.828427     -2.364320518314e-05    3.86469628986043e-05    3.35621397402561e-05
173                      24                       8                       0   -2.08521892236945e-07    3.29310874274285e-07    4.34489112737196e-07
174                      26                      10                5.656854   -0.000420678047776941     0.00035910128182554    0.000199805854900283
175                      26                      10                2.828427   -7.97984251064768e-06    6.76366380719245e-06    8.16374209337616e-06
176                      26                      10                       0   -2.02107888005985e-06    1.69746424067083e-06    3.07292599174224e-06
177                      28                       8                5.656854   -1.35959788445135e-06    1.20721655986728e-06    4.54519077705294e-07
178                      28                       8                2.828427   -1.46397550930798e-06    1.29510611457666e-06     1.0760646067079e-06
179                      28                       8                       0   -2.03358789976891e-08     1.7928518876316e-08    2.28018670422183e-08
180                      30                      10                5.656854   -4.20600912689368e-06    2.12781901903808e-06    1.11500946362985e-06
181                      30                      10                2.828427   -1.52885767091171e-07     7.8385121837217e-08    8.99905200099693e-08
182                      30                      10                       0   -7.49784685666939e-08    3.86798625128097e-08    6.72559239643339e-08
183                       0                      12                5.656854    5.65858938143673e-09    7.86883536467103e-08     6.3940384436425e-08
184                       0                      12                2.828427    7.22108428437019e-09    1.10707345725023e-07    1.96364626810267e-07
185                       0                      12                       0    1.09961820958602e-10    1.96657992732668e-09    5.26064890648422e-09
186                       2                      14                5.656854      2.629959307871e-05    3.72391730109557e-06    6.98828245857004e-06
187                       2                      14                2.828427    8.25786848881145e-07    1.23570930431558e-07     4.8729608454267e-07
188                       2                      14                       0    3.38004855434311e-07    5.33107650876819e-08     3.0679754999024e-07
189                       4                      12                5.656854     3.4929327538912e-05    1.31647167424333e-05    1.19935060861775e-05
190                       4                      12                2.828427    2.53940511897327e-05    9.93855597650929e-06    1.91414902016593e-05
191                       4                      12                       0    2.34050536481292e-07    9.49903407041576e-08    2.67905645104816e-07
192                       6                      14                5.656854     0.00524141427267933     0.00106427446275951     0.00254422928474979
193                       6                      14                2.828427    6.71408021570248e-05     1.5265179835861e-05    7.06213845537428e-05
194                       6                      14                       0    1.14209274105803e-05    2.85998407480713e-06    1.78707252742546e-05
195                       8                      12                5.656854     0.00218359413307261     0.00171960011644112     0.00170818757434526
196                       8                      12                2.828427    0.000694439269512256    0.000540575123986656     0.00113656852934867
197                       8                      12                       0    2.97253818881077e-06    2.28080980351317e-06    6.85574316580776e-06
198                      10                      14                5.656854      -0.436677731098516      -0.192709030311008       -1.53745960022758
199                      10                      14                2.828427    0.000486775432224905    0.000296901022554566     0.00158825889174362
200                      10                      14                       0    4.77088721478766e-05     2.8410148627041e-05    0.000196122674517446
201                      12                      12                5.656854    -0.00445867408907502    -0.00256349918983137      -0.012979584255913