ITEM: TIMESTEP
0
ITEM: NUMBER OF ATOMS
422
ITEM: BOX BOUNDS ff ff ff
0.0000000000000000e+00 2.3200000000000000e+02
0.0000000000000000e+00 2.3200000000000000e+02
0.0000000000000000e+00 2.3200000000000000e+02
ITEM: ATOMS id xu yu zu fx fy fz
1        113.170783704167        116.008372326005        108.681705510328       -1.03623512363187      -0.380702115551838     -0.0109013171559139
2        118.809646820361        115.971388221924        108.639015980289        1.63944852889265        2.53857832135294       0.141810118682992
3        117.415873631791        116.001323750639        108.670382637874       -1.04949487891215       0.791238561621254      0.0346611330347436
4        114.566307918703         115.98018782269        108.652089879754        2.15014056190813        2.75288549095513        0.18682986239772
5        116.723196760739        114.771846443133         108.67897559297       0.175289101621819      -0.269569693248364   -0.000742472768343033
6        115.310915240683        114.784380858528        108.692942249816       -1.13863113194397        -1.8493444633355      -0.123436708153035
7        115.314573029786        117.265253370146        108.699085164758       -1.22415295744501       -2.44434694380824      -0.142075517460659
8        116.738796593358        117.264660998519        108.697060551937      -0.490574068503434       -1.46557752119644     -0.0453302855651039
9        114.521368440562        113.552057760979        108.660465519804        1.94840887053573         3.3741276580727      0.0538337365912553
10        117.477431955655         113.56827987681        108.673732472924       -1.71631630100385        1.14530323326066      0.0187879053057259
11        114.553318445536        118.461800546656        108.697308894763       -1.04382184072886       -3.62982323453494       0.138260011260012
12         117.47683769698        118.445478400504        108.678031586325       -0.77883402721114      -0.759703138314053      0.0248504146902053
13         113.15212613986        113.587259467522        108.681668879624      -0.960396683086944      -0.186296186272058    -0.00795424001092633
14        113.151315853886        118.433421808047        108.685721045773        1.14971319482473      0.0896616777895491     0.00847495345325579
15        118.838325607232        113.555549674636        108.644211381064        1.77255469819733        2.50902882576857      0.0237252060116914
16        118.838981696053        118.403178395137        108.649729924557       0.320368131341776        -1.0265150212351      0.0133517672379946
17         112.47274386032        117.240267965821        108.702802022181       -2.84122284893113       -1.74497241504163      -0.142281264285511
18        112.440312463451        114.782363219774        108.667937404711       -1.39056907814759        1.25823096198969      -0.041052721898501
19        119.567416818894        114.799222734474        108.677649622202       0.299366064379478       -1.51066122803005     -0.0531890370440834
20        119.570598704235        117.227877972167        108.683264729207       -1.18881914129642       -2.94136995832403       -0.12050695731045
21        120.993640545169        114.862940608367        108.695359522545       -0.87740225392669       -1.02897712083725      -0.100962039119619
22        120.968908057546        117.174404924871        108.672970695295      -0.618809846324477      -0.459222737967925       0.012773935895109
23        110.996244511159         114.79007766749        108.632472837998         3.9903914404107        4.92982586288098     -0.0465079568571375
24        111.011763428993        117.141793388121        108.650335415848        2.97839448902699        1.61152811158466       0.162756633479127
25        121.621196832721        116.026467450099        108.691324371981      -0.503025134764162     -0.0809868728986627    -0.00491165982812487
26        110.396165596849        115.990225001042        108.666329022378       0.599425756181202       -1.81888503563552     -0.0386954054717338
27        121.622504608771        118.199230703873        108.670162562947      0.0480458092775581      0.0753348282336786    -0.00020642549439144
28        121.595545108378        113.780064391373        108.638796821678      -0.799208031128868         1.4378415154838      0.0751038745319686
29        110.396250020542         118.21106075711        108.693289269814       0.621694660921339       -1.08000541543126     -0.0433852151884024
30        110.383969670262        113.806573596731        108.676602680002       -2.13195888759809       -3.42458991385711         0.1536613993979
31        112.610192267074        112.625780244924        108.667179444831       0.340455718664536       0.604024062986604     0.00910260676307424
32        112.597979757784        119.355359578394        108.661730257184       -0.09419946964389       0.156949907340247    -0.00408417158626007
33        119.417257424236        112.659207625915        108.693797891284       0.222088546515139      -0.343852759399212      0.0190222676627488
34        119.342240489371        119.325982542618        108.625544282229       0.445565950805159       0.817015247102163     -0.0214130361214632
35        114.994373318991        112.601047310004        108.688940746124       0.260691414923393      -0.524138907181577      0.0156938065085497
36        114.937974387712        119.384271425171         108.63940327903       0.956276951864923         2.2933160343258      -0.143956714658824
37        117.023595759453        112.576628745171        108.662457835432       0.118789668486201       0.259560410049232     0.00295108777394003
38        117.020233409403        119.412889442457        108.665956951872      -0.153437854550236       0.325089971303121    -0.00405757469952994
39                     100                     100              105.656854                       0                       0                       0
40                     100                     100              102.828427                       0                       0                       0
41                     100                     100                     100                       0                       0                       0
42                     102                     102              105.656854                       0                       0                       0
43                     102                     102              102.828427                       0                       0                       0
44                     102                     102                     100                       0                       0                       0
45                     104                     100              105.656854                       0                       0                       0
46                     104                     100              102.828427                       0                       0                       0
47                     104                     100                     100                       0                       0                       0
48                     106                     102              105.656854                       0                       0                       0
49                     106                     102              102.828427                       0                       0                       0
50                     106                     102                     100                       0                       0                       0
51                     108                     100              105.656854                       0                       0                       0
52                     108                     100              102.828427                       0                       0                       0
53                     108                     100                     100                       0                       0                       0
54                     110                     102              105.656854                       0                       0                       0
55                     110                     102              102.828427                       0                       0                       0
56                     110                     102                     100                       0                       0                       0
57                     112                     100              105.656854                       0                       0                       0
58                     112                     100              102.828427                       0                       0                       0
59                     112                     100                     100                       0                       0                       0
60                     114                     102              105.656854                       0                       0                       0
61                     114                     102              102.828427                       0                       0                       0
62                     114                     102                     100                       0                       0                       0
63                     116                     100              105.656854                       0                       0                       0
64                     116                     100              102.828427                       0                       0                       0
65                     116                     100                     100                       0                       0                       0
66                     118                     102              105.656854                       0                       0                       0
67                     118                     102              102.828427                       0                       0                       0
68                     118                     102                     100                       0                       0                       0
69                     120                     100              105.656854                       0                       0                       0
70                     120                     100              102.828427                       0                       0                       0
71                     120                     100                     100                       0                       0                       0
72                     122                     102              105.656854                       0                       0                       0
73                     122                     102              102.828427                       0                       0                       0
74                     122                     102                     100                       0                       0                       0
75                     124                     100              105.656854                       0                       0                       0
76                     124                     100              102.828427                       0                       0                       0
77                     124                     100                     100                       0                       0                       0
78                     126                     102              105.656854                       0                       0                       0
79                     126                     102              102.828427                       0                       0                       0
80                     126                     102                     100                       0                       0                       0
81                     128                     100              105.656854                       0                       0                       0
82                     128                     100              102.828427                       0                       0                       0
83                     128                     100                     100                       0                       0                       0
84                     130                     102              105.656854                       0                       0                       0
85                     130                     102              102.828427                       0                       0                       0
86                     130                     102                     100                       0                       0                       0
87                     100                     104              105.656854                       0                       0                       0
88                     100                     104              102.828427                       0                       0                       0
89                     100                     104                     100                       0                       0                       0
90                     102                     106              105.656854                       0                       0                       0
91                     102                     106              102.828427                       0                       0                       0
92                     102                     106                     100                       0                       0                       0
93                     104                     104              105.656854                       0                       0                       0
94                     104                     104              102.828427                       0                       0                       0
95                     104                     104                     100                       0                       0                       0
96                     106                     106              105.656854                       0                       0                       0
97                     106                     106              102.828427                       0                       0                       0
98                     106                     106                     100                       0                       0                       0
99                     108                     104              105.656854                       0                       0                       0
100                     108                     104              102.828427                       0                       0                       0
101                     108                     104                     100                       0                       0                       0
102                     110                     106              105.656854                       0                       0                       0
103                     110                     106              102.828427                       0                       0                       0
104                     110                     106                     100                       0                       0                       0
105                     112                     104              105.656854                       0                       0                       0
106                     112                     104              102.828427                       0                       0                       0
107                     112                     104                     100                       0                       0                       0
108                     114                     106              105.656854                       0                       0                       0
109                     114                     106              102.828427                       0                       0                       0
110                     114                     106                     100                       0                       0                       0
111                     116                     104              105.656854                       0                       0                       0
112                     116                     104              102.828427                       0                       0                       0
113                     116                     104                     100                       0                       0                       0
114                     118                     106              105.656854                       0                       0                       0
115                     118                     106              102.828427                       0                       0                       0
116                     118                     106                     100                       0                       0                       0
117                     120                     104              105.656854                       0                       0                       0
118                     120                     104              102.828427                       0                       0                       0
119                     120                     104                     100                       0                       0                       0
120                     122                     106              105.656854                       0                       0                       0
121                     122                     106              102.828427                       0                       0                       0
122                     122                     106                     100                       0                       0                       0
123                     124                     104              105.656854                       0                       0                       0
124                     124                     104              102.828427                       0                       0                       0
125                     124                     104                     100                       0                       0                       0
126                     126                     106              105.656854                       0                       0                       0
127                     126                     106              102.828427                       0                       0                       0
128                     126                     106                     100                       0                       0                       0
129                     128                     104              105.656854                       0                       0                       0
130                     128                     104              102.828427                       0                       0                       0
131                     128                     104                     100                       0                       0                       0
132                     130                     106              105.656854                       0                       0                       0
133                     130                     106              102.828427                       0                       0                       0
134                     130                     106                     100                       0                       0                       0
135                     100                     108              105.656854                       0                       0                       0
136                     100                     108              102.828427                       0                       0                       0
137                     100                     108                     100                       0                       0                       0
138                     102                     110              105.656854                       0                       0                       0
139                     102                     110              102.828427                       0                       0                       0
140                     102                     110                     100                       0                       0                       0
141                     104                     108              105.656854                       0                       0                       0
142                     104                     108              102.828427                       0                       0                       0
143                     104                     108                     100                       0                       0                       0
144                     106                     110              105.656854                       0                       0                       0
145                     106                     110              102.828427                       0                       0                       0
146                     106                     110                     100                       0                       0                       0
147                     108                     108              105.656854                       0                       0                       0
148                     108                     108              102.828427                       0                       0                       0
149                     108                     108                     100                       0                       0                       0
150                     110                     110              105.656854                       0                       0                       0
151                     110                     110              102.828427                       0                       0                       0
152                     110                     110                     100                       0                       0                       0
153                     112                     108              105.656854                       0                       0                       0
154                     112                     108              102.828427                       0                       0                       0
155                     112                     108                     100                       0                       0                       0
156                     114                     110              105.656854                       0                       0                       0
157                     114                     110              102.828427                       0                       0                       0
158                     114                     110                     100                       0                       0                       0
159                     116                     108              105.656854                       0                       0                       0
160                     116                     108              102.828427                       0                       0                       0
161                     116                     108                     100                       0                       0                       0
162                     118                     110              105.656854                       0                       0                       0
163                     118                     110              102.828427                       0                       0                       0
164                     118                     110                     100                       0                       0                       0
165                     120                     108              105.656854                       0                       0                       0
166                     120                     108              102.828427                       0                       0                       0
167                     120                     108                     100                       0                       0                       0
168                     122                     110              105.656854                       0                       0                       0
169                     122                     110              102.828427                       0                       0                       0
170                     122                     110                     100                       0                       0                       0
171                     124                     108              105.656854                       0                       0                       0
172                     124                     108              102.828427                       0                       0                       0
173                     124                     108                     100                       0                       0                       0
174                     126                     110              105.656854                       0                       0                       0
175                     126                     110              102.828427                       0                       0                       0
176                     126                     110                     100                       0                       0                       0
177                     128                     108              105.656854                       0                       0                       0
178                     128                     108              102.828427                       0                       0                       0
179                     128                     108                     100                       0                       0                       0
180                     130                     110              105.656854                       0                       0                       0
181                     130                     110              102.828427                       0                       0                       0
182                     130                     110                     100                       0                       0                       0
183                     100                     112              105.656854                       0                       0                       0
184                     100                     112              102.828427                       0                       0                       0
185                     100                     112                     100                       0                       0                       0
186                     102                     114              105.656854                       0                       0                       0
187                     102                     114              102.828427                       0                       0                       0
188                     102                     114                     100                       0                       0                       0
189                     104                     112              105.656854                       0                       0                       0
190                     104                     112              102.828427                       0                       0                       0
191                     104                     112                     100                       0                       0                       0
192                     106                     114              105.656854                       0                       0                       0
193                     106                     114              102.828427                       0                       0                       0
194                     106                     114                     100                       0                       0                       0
195                     108                     112              105.656854                       0                       0                       0
196                     108                     112              102.828427                       0                       0                       0
197                     108                     112                     100                       0                       0                       0
198                     110                     114              105.656854                       0                       0                       0
199                     110                     114              102.828427                       0                       0                       0
200                     110                     114                     100                       0                       0                       0
201                     112                     112              105.656854                       0                       0                       0