ITEM: TIMESTEP
0
ITEM: NUMBER OF ATOMS
422
ITEM: BOX BOUNDS pp pp pp
0.0000000000000000e+00 3.2000000000000000e+01
0.0000000000000000e+00 3.2000000000000000e+01
0.0000000000000000e+00 3.2000000000000000e+01
ITEM: ATOMS id xu yu zu fx fy fz
1        13.1459321938386        15.9835208156773                 9.55685    7.90470064155058e-05    1.20817226125641e-05     -0.0154179845317339
2        18.8274848400711        15.9892262416344                 9.55685   -7.62813552852293e-05    8.19616185598893e-06     -0.0153961379135115
3         17.402344993917         15.987795112765                 9.55685    5.04020668438687e-05     1.2694531609847e-05     -0.0152106410297116
4         14.571072038949        15.9849519429358                 9.55685   -4.74021994100182e-05    1.60961335492066e-05     -0.0151905697274604
5        16.7010751677692        14.7497248501637                 9.55685   -0.000550909813395672    0.000210776863051848     -0.0140826170209807
6        15.2748269908674        14.7482926087119                 9.55685    0.000566074457143462    0.000228580403388468     -0.0139986273634305
7        15.2723418650276        17.2230222053877                 9.55685    0.000545772043473447   -0.000231363970871451      -0.014049236188565
8        16.6985900414216        17.2244544465825                 9.55685   -0.000530421860407165   -0.000209477730713767     -0.0141417467769923
9        14.5177569207574        13.5484462411751                 9.55685    0.000731653875071007    -0.00063194341257973    -0.00993684421758546
10        17.4605534827313        13.5514014038861                 9.55685   -0.000753334328831679   -0.000618037829741583     -0.0100127391296518
11        14.5128635507729         18.421345651893                 9.55685    0.000741279867432727    0.000601372748740572    -0.00981762988273281
12        17.4556601106552        18.4243008141789                 9.55685   -0.000769864405476051    0.000589697971828854    -0.00995340771994827
13        13.1273112602358        13.5624445878976                 9.55685   -0.000922573730564646   -0.000416261972222914     -0.0115200239476936
14        13.1224488081137        18.4045547622743                 9.55685    -0.00094262660285388    0.000388815900048384     -0.0114653429344071
15         18.850968226168        13.5681922935721                 9.55685    0.000924140373026229     -0.0004252790109734     -0.0113975553169582
16        18.8461057714963        18.4103024705805                 9.55685     0.00093631685664769    0.000411513700495553     -0.0113202650163559
17         12.426795838139        17.1943199436399                 9.55685   -0.000330374200558989   -3.67872901825999e-05     -0.0149215320695159
18        12.4292290587396        14.7712798150634                 9.55685   -0.000349504660325852     4.0284654161157e-05     -0.0148721336501168
19        19.5466211966922        14.7784271122721                 9.55685    0.000363996652195237    5.24169322975856e-05     -0.0148278067220741
20        19.5441879750283        17.2014672429596                 9.55685    0.000355129423656227   -5.22658097968365e-05     -0.0148492988854413
21        20.9551350226241        14.8244350858224                 9.55685   -0.000599098689539677    0.000421323174885582     -0.0133639468847433
22        20.9527913622507        17.1582882295758                 9.55685   -0.000583325634967359   -0.000420309441476279     -0.0134222574410237
23        11.0206256731611        14.8144588294926                 9.55685    0.000613651210522213    0.000442507155320281     -0.0132454250069514
24        11.0182820131454        17.1483119722736                 9.55685    0.000581089822802221    -0.00044588556276575     -0.0133478385018372
25        21.5867264607395        15.9919970781177                 9.55685    9.77616883639931e-05    1.80269339808803e-06    -0.00995443776473262
26        10.3866905744716        15.9807499786644                 9.55685   -9.19668894108185e-05    4.01642971848058e-06    -0.00995108597221329
27         21.609196045824        18.1859221409264                 9.55685   -0.000165687645111906    7.53691636642129e-05    -0.00770003343549451
28        21.6136022867001        13.7981215696947                 9.55685   -0.000163224032690733    -8.1614489988326e-05    -0.00770447265080767
29        10.3598147507275        18.1746254872963                 9.55685    0.000155809217273412     7.2841008441444e-05     -0.0076551367692165
30        10.3642209902605        13.7868249167297                 9.55685    0.000154778123796882   -8.76393960415797e-05    -0.00768490532590281
31        12.5998668222426        12.6154548000933                 9.55685    0.000140219598920022    0.000142943154834256    -0.00605271763377956
32        12.5931035005993        19.3504833212092                 9.55685    0.000138352148629228   -0.000147865088807042    -0.00605529721533118
33        19.3803135329519        12.6222637346313                 9.55685   -0.000142945056963434    0.000143452166413371    -0.00605503998097655
34        19.3735502071424         19.357292260389                 9.55685   -0.000143414631861696   -0.000146135490643101    -0.00605738974402803
35        14.9622865728669        12.5689605638796                 9.55685   -0.000169027260770838    0.000123436915006492    -0.00609232360487771
36         14.955425108682        19.4017221461408                 9.55685   -0.000167868048088715   -0.000127236143665665    -0.00609261072093577
37        17.0179919240215        12.5710249097393                 9.55685    0.000169476585013983    0.000124362816824014    -0.00609044346628671
38         17.011130457531        19.4037864905846                 9.55685     0.00016875352795076   -0.000128097840981917    -0.00608969541182276
39                       0                       0                5.656854                       0                       0                       0
40                       0                       0                2.828427                       0                       0                       0
41                       0                       0                       0                       0                       0                       0
42                       2                       2                5.656854    4.00072359898586e-10    5.63780280989522e-10    1.86542250035225e-10
43                       2                       2                2.828427                       0                       0                       0
44                       2                       2                       0                       0                       0                       0
45                       4                       0                5.656854                       0                       0                       0
46                       4                       0                2.828427                       0                       0                       0
47                       4                       0                       0                       0                       0                       0
48                       6                       2                5.656854     1.2255780085076e-08    2.45690570254583e-08    8.26292747034093e-09
49                       6                       2                2.828427    2.14130445071632e-10    4.67590242134783e-10    2.77190685665946e-10
50                       6                       2                       0                       0                       0                       0
51                       8                       0                5.656854    3.42193593449131e-10    2.54263167122612e-11    3.32766653699637e-10
52                       8                       0                2.828427                       0                       0                       0
53                       8                       0                       0                       0                       0                       0
54                      10                       2                5.656854    5.14771203667255e-08    2.00012716599145e-07    6.86654748175353e-08
55                      10                       2                2.828427    1.34449677190511e-09    5.40856367524793e-09    3.20553560960594e-09
56                      10                       2                       0    1.36414771904474e-10    5.56991932366691e-10    5.01447036333462e-10
57                      12                       0                5.656854    7.82060981852988e-10    1.40062008565752e-10    1.89385949815038e-09
58                      12                       0                2.828427    3.69794406066041e-10    6.08368249472881e-11    1.60451647223015e-09
59                      12                       0                       0                       0                       0                       0
60                      14                       2                5.656854    3.17773025690235e-08    4.88723034270999e-07    1.70108906797562e-07
61                      14                       2                2.828427    8.42471871193332e-10    1.29546103975773e-08    7.76378527985665e-09
62                      14                       2                       0    1.65362473013853e-10    2.94977665274354e-09    2.59466275398716e-09
63                      16                       0                5.656854   -4.99614405105065e-12    1.92641575747155e-10    3.00063057340757e-09
64                      16                       0                2.828427   -3.01085084830431e-12    9.92391437778266e-11    3.01709806037073e-09
65                      16                       0                       0                       0                       0                       0
66                      18                       2                5.656854   -3.25517359734271e-08    4.86023175731991e-07    1.69131736901553e-07
67                      18                       2                2.828427   -8.63359224156032e-10    1.28900141480207e-08    7.72339561301231e-09
68                      18                       2                       0   -1.27958756151733e-10    2.03248058451848e-09    1.83443701136483e-09
69                      20                       0                5.656854   -7.87412492342321e-10    1.03108745364367e-10    1.88438173687892e-09
70                      20                       0                2.828427   -3.73494355481195e-10    4.49323642331205e-11     1.5971671641854e-09
71                      20                       0                       0                       0                       0                       0
72                      22                       2                5.656854     -5.101623534322e-08    1.96784098944651e-07    6.75223409004026e-08
73                      22                       2                2.828427   -1.33460121171977e-09    5.32903708474073e-09    3.15674515990328e-09
74                      22                       2                       0   -1.35625285564754e-10    5.49931287760871e-10     4.9477314428777e-10
75                      24                       0                5.656854   -3.39846263025548e-10    1.57505702404968e-11    3.28828272558056e-10
76                      24                       0                2.828427                       0                       0                       0
77                      24                       0                       0                       0                       0                       0
78                      26                       2                5.656854   -1.19917247300199e-08    2.39557196954928e-08    8.05135426114552e-09
79                      26                       2                2.828427   -2.09911611139219e-10    4.56731610092584e-10     2.7054300055888e-10
80                      26                       2                       0                       0                       0                       0
81                      28                       0                5.656854                       0                       0                       0
82                      28                       0                2.828427                       0                       0                       0
83                      28                       0                       0                       0                       0                       0
84                      30                       2                5.656854   -3.87972906260772e-10    5.45806634778746e-10    1.80422254495014e-10
85                      30                       2                2.828427                       0                       0                       0
86                      30                       2                       0                       0                       0                       0
87                       0                       4                5.656854    3.94272412053333e-12    2.19082616219296e-10    8.72537716927707e-11
88                       0                       4                2.828427                       0                       0                       0
89                       0                       4                       0                       0                       0                       0
90                       2                       6                5.656854    6.67807399317468e-08    6.09492825570777e-08    2.94247712938099e-08
91                       2                       6                2.828427    1.68838837910602e-09    1.56829904529867e-09    1.30801506456021e-09
92                       2                       6                       0    4.48341525719748e-10    4.17391765203759e-10    5.12269189810267e-10
93                       4                       4                5.656854    7.62335423575135e-09     1.0392534939007e-08    4.11425185722913e-09
94                       4                       4                2.828427    6.42209308754536e-09     8.7925366865165e-09    6.05711616155556e-09
95                       4                       4                       0                       0                       0                       0
96                       6                       6                5.656854    2.03434828200938e-06    3.00149256917321e-06    1.48545347269212e-06
97                       6                       6                2.828427    4.20853824750566e-08    6.12302430496021e-08    5.18549095365142e-08
98                       6                       6                       0    1.33225204533852e-08    1.90308358333814e-08    2.29854947934579e-08
99                       8                       4                5.656854    8.28297290136772e-08    1.94069791681551e-07     7.8852787756588e-08
100                       8                       4                2.828427    6.24840335824301e-08    1.45786251264083e-07     1.0182797985591e-07
101                       8                       4                       0    6.48090837786525e-10    1.49542517256681e-09    1.49999747056725e-09
102                      10                       6                5.656854    1.22486942920876e-05    3.63649202437293e-05    1.89166630602543e-05
103                      10                       6                2.828427    1.89694812854414e-07    5.51543431714404e-07    4.86511904669777e-07
104                      10                       6                       0    4.78201338308434e-08    1.36923949746437e-07    1.68945001039753e-07
105                      12                       4                5.656854    1.61059919913082e-07    9.59070969647386e-07    4.02139229002742e-07
106                      12                       4                2.828427    1.08695881679363e-07    6.28567326697529e-07    4.50004018413748e-07
107                      12                       4                       0    9.97290580913985e-10    5.95820556299966e-09    6.06290976230004e-09
108                      14                       6                5.656854    6.81142793616361e-06    9.93583014264887e-05    5.34038324521247e-05
109                      14                       6                2.828427    1.04448324077552e-07    1.33298138566071e-06    1.21070798947789e-06
110                      14                       6                       0    2.64820623351252e-08    3.01440225847802e-07    3.80889461372362e-07
111                      16                       4                5.656854   -1.48933975530488e-09    1.42841724439098e-06    6.05054209690469e-07
112                      16                       4                2.828427   -9.58827558152691e-10     9.1526387633049e-07    6.61561837536888e-07
113                      16                       4                       0   -9.14139149328336e-12     8.6375003534559e-09    8.86194959101814e-09
114                      18                       6                5.656854   -7.00194474951547e-06    9.87909211597227e-05    5.30761517111514e-05
115                      18                       6                2.828427    -1.0703480531086e-07    1.32657164273892e-06     1.2044257432125e-06
116                      18                       6                       0   -2.70783170871747e-08    3.00221481617311e-07    3.79219428116083e-07
117                      20                       4                5.656854   -1.61235438982182e-07    9.48015376924194e-07     3.9729459192965e-07
118                      20                       4                2.828427   -1.08927383787063e-07     6.2221549772386e-07    4.45237091614222e-07
119                      20                       4                       0   -1.00134967416081e-09    5.90685399222499e-09    6.00763494603525e-09
120                      22                       6                5.656854   -1.21137089620476e-05    3.57073277993194e-05    1.85570560949805e-05
121                      22                       6                2.828427   -1.88103437359269e-07    5.43099045022446e-07    4.78652213734106e-07
122                      22                       6                       0   -4.75329481407276e-08    1.35165098958351e-07    1.66641761582338e-07
123                      24                       4                5.656854   -8.13830607007691e-08    1.89756481120046e-07    7.70412775230076e-08
124                      24                       4                2.828427   -6.15382557669966e-08    1.42895958427971e-07    9.97348380110217e-08
125                      24                       4                       0   -5.50856960965959e-10    1.33965599072059e-09    1.34295015536015e-09
126                      26                       6                5.656854   -1.98348123204513e-06    2.91666748354355e-06    1.44190048607649e-06
127                      26                       6                2.828427   -4.11763472319259e-08    5.97132335326719e-08    5.05183890030773e-08
128                      26                       6                       0    -1.3080910057804e-08    1.86274034494043e-08    2.24752554031053e-08
129                      28                       4                5.656854    -7.4130736776126e-09    1.00807538681462e-08    3.98733580679048e-09
130                      28                       4                2.828427   -6.26104438824882e-09    8.55170232885106e-09     5.8858071239816e-09
131                      28                       4                       0                       0                       0                       0
132                      30                       6                5.656854   -6.46179630342041e-08    5.88837537383944e-08    2.83951846156793e-08
133                      30                       6                2.828427   -1.63855946764248e-09    1.51972144033453e-09    1.26600532866586e-09
134                      30                       6                       0   -4.36776961507052e-10    4.06138602188193e-10    4.97735982394307e-10
135                       0                       8                5.656854    2.63945916143754e-10    8.62546512876255e-09    5.36165950768742e-09
136                       0                       8                2.828427    2.04618902013315e-10    7.43258621474859e-09    7.93848459573976e-09
137                       0                       8                       0                       0                       0                       0
138                       2                      10                5.656854    2.02435308732868e-06    1.03098272530269e-06    9.09618881168132e-07
139                       2                      10                2.828427    4.31249283747779e-08    2.21936649625464e-08    3.31082485775679e-08
140                       2                      10                       0    1.32946064194892e-08    6.88283869607999e-09    1.44946561518796e-08
141                       4                       8                5.656854    6.24418187348229e-07    5.54511476777345e-07    3.52725463002796e-07
142                       4                       8                2.828427    3.89926843696375e-07      3.446329015611e-07    3.73315496727309e-07
143                       4                       8                       0     3.5616234688416e-09    3.15927980794198e-09    4.83689087381012e-09
144                       6                      10                5.656854    0.000142074476938578    0.000121161344706357    0.000112972323283125
145                       6                      10                2.828427    1.51013819042627e-06    1.27655991574163e-06    1.98662719596857e-06
146                       6                      10                       0    2.86616459207783e-07    2.40647509205363e-07    5.15232463293387e-07
147                       8                       8                5.656854    1.22831189536291e-05    2.04862395450463e-05    1.36553650425418e-05
148                       8                       8                2.828427    4.75958690935548e-06    7.66005689083521e-06    8.63868670511734e-06
149                       8                       8                       0    3.06859237316417e-08    4.79627997588068e-08    7.53701756302538e-08
150                      10                      10                5.656854     0.00123395972293084     0.00246208477049065     0.00250585870961577
151                      10                      10                2.828427    7.84111229761408e-06     1.4740942506384e-05    2.45748292103389e-05
152                      10                      10                       0    1.03419653186568e-06    1.84104518247959e-06    4.15564838222676e-06
153                      12                       8                5.656854    2.94936152386734e-05    0.000134967874153105     9.7367451193651e-05
154                      12                       8                2.828427     8.4884670312455e-06    3.67383093288445e-05    4.39744076483094e-05
155                      12                       8                       0    4.51327378597186e-08    1.83442581155875e-07    3.01016509939605e-07
156                      14                      10                5.656854    0.000450027179949077     0.00657054198160632     0.00738847890879851
157                      14                      10                2.828427    3.19537801706218e-06    3.34609992544547e-05    6.00817980803173e-05
158                      14                      10                       0    4.60217524026899e-07    3.76338271232302e-06    8.95927370936319e-06
159                      16                       8                5.656854   -2.18525965839841e-07    0.000195692873930967    0.000144536387293524
160                      16                       8                2.828427   -6.11547376991154e-08    5.16427106150177e-05    6.31765826040384e-05
161                      16                       8                       0   -3.13880462842959e-10    2.52002835534442e-07     4.2123412557664e-07
162                      18                      10                5.656854   -0.000468686403370053     0.00654607839018717     0.00735361566756708
163                      18                      10                2.828427   -3.28787870942009e-06    3.33553472791369e-05    5.98419675723467e-05
164                      18                      10                       0   -4.70623615096591e-07    3.75316830451242e-06    8.92884009063432e-06
165                      20                       8                5.656854   -2.95268009713303e-05    0.000133358620126013    9.60995410848726e-05
166                      20                       8                2.828427   -8.51229467562133e-06       3.63937530331e-05    4.35200403740736e-05
167                      20                       8                       0   -4.53029313056701e-08    1.82044328063182e-07    2.98471545485469e-07
168                      22                      10                5.656854    -0.00122089391822058     0.00241958765394546     0.00245723020038228
169                      22                      10                2.828427   -7.78658808686847e-06    1.45421374001565e-05    2.42001183455843e-05
170                      22                      10                       0   -1.02945833026242e-06    1.82109798356195e-06    4.10454162854728e-06
171                      24                       8                5.656854   -1.20352989964161e-05    1.99778089660184e-05    1.32966737780778e-05
172                      24                       8                2.828427   -4.68286298262604e-06     7.5037789376822e-06    8.45134374816552e-06
173                      24                       8                       0   -3.03027755575108e-08    4.71595732333541e-08    7.40196776811435e-08
174                      26                      10                5.656854   -0.000138087762117977    0.000117460450708104    0.000109284665283794
175                      26                      10                2.828427   -1.47658860267644e-06    1.24496366098109e-06     1.9338929162872e-06
176                      26                      10                       0   -2.81535847143142e-07    2.35760715658855e-07    5.03961315516628e-07
177                      28                       8                5.656854   -6.05005157239192e-07    5.36215274485067e-07     3.4058146035199e-07
178                      28                       8                2.828427   -3.79459550837295e-07    3.34711806468348e-07    3.62076363140415e-07
179                      28                       8                       0   -3.48090726255585e-09    3.08161353033484e-09    4.71163862831972e-09
180                      30                      10                5.656854   -1.95388368391986e-06    9.94809145926662e-07    8.76116055887098e-07
181                      30                      10                2.828427    -4.1804404235674e-08    2.15013091783193e-08    3.20239652871003e-08
182                      30                      10                       0   -1.29484550685117e-08    6.69740161030998e-09    1.40794384022966e-08
183                       0                      12                5.656854    2.74670829051638e-09    4.00706792261055e-08    5.46754560430446e-08
184                       0                      12                2.828427    2.03037087929509e-09    3.33935344252891e-08    7.73716747872798e-08
185                       0                      12                       0    1.71291402215896e-11    3.01217258047961e-10    1.10586471204396e-09
186                       2                      14                5.656854    1.13298267572702e-05    1.65122450736469e-06    5.09459457702992e-06
187                       2                      14                2.828427    2.03779792004389e-07    3.15133641122265e-08    1.57190763694577e-07
188                       2                      14                       0    5.81700166754571e-08     9.2229288572937e-09    6.27634204753089e-08
189                       4                      12                5.656854    1.26323327151155e-05    4.85813057058603e-06    7.29853328478215e-06
190                       4                      12                2.828427    5.16756855218601e-06     2.0667586106869e-06    5.05029942438714e-06
191                       4                      12                       0     3.4804271806093e-08     1.4355235747435e-08    4.73479858377791e-08
192                       6                      14                5.656854     0.00140629018440903    0.000302164616956971     0.00114213371730577
193                       6                      14                2.828427    9.77244100048862e-06    2.36571492683562e-06    1.31741510163765e-05
194                       6                      14                       0    1.34505971067873e-06     3.4692911331523e-07     2.4686439651637e-06
195                       8                      12                5.656854    0.000532351519727459    0.000416504930321783    0.000693895865327085
196                       8                      12                2.828427    8.83040818008886e-05    6.81994055333731e-05    0.000179217006278512
197                       8                      12                       0    3.24968024377718e-07    2.47266723242563e-07    8.59961436366119e-07
198                      10                      14                5.656854      0.0105891950276671     0.00654624822159795      0.0233721114299783
199                      10                      14                2.828427    5.00393882460571e-05    3.01640633006453e-05    0.000188832873410894
200                      10                      14                       0    4.59638037342385e-06      2.688018400342e-06    2.07649047170358e-05
201                      12                      12                5.656854    0.000975166885188995     0.00258065819138893     0.00509711161963859