ITEM: TIMESTEP
0
ITEM: NUMBER OF ATOMS
422
ITEM: BOX BOUNDS ff ff ff
0.0000000000000000e+00 2.3200000000000000e+02
0.0000000000000000e+00 2.3200000000000000e+02
0.0000000000000000e+00 2.3200000000000000e+02
ITEM: ATOMS id xu yu zu fx fy fz
1        113.114564085553        115.952152707392        108.625485891715     -0.0047537178343648    0.000376471505936875      0.0097146995559827
2         118.79979332903        115.961534730593        108.629162488959     0.00197906784104967    0.000215237716820367      0.0115471776541499
3         117.40532833859        115.990778457438        108.659837344673   -0.000747005485888466     0.00315542987396616      0.0129540010984477
4        114.607140347897        116.021020251884        108.692922308948     0.00599616996237748     0.00226340361780449     0.00949026230128869
5        116.718722016899        114.767371699293        108.674500849129     -0.0161679194833863      0.0159308939645229      0.0365907615734285
6        115.305149114587        114.778614732431        108.687176123719       0.022114634309562      0.0150420677868683      0.0322964128009861
7        115.293139976325        117.243820316686        108.677652111298      0.0233229720632546     -0.0078899715420869      0.0354928155404207
8        116.700699191257        117.226563596418        108.658963149835     -0.0169335687432578    -0.00867231891803898      0.0376529963426906
9        114.522153521013        113.552842841431        108.661250600256      0.0301127888908029     -0.0361930044679124       0.154622814276386
10        117.414857643893        113.505705565048        108.611158161162     -0.0568896684789725     -0.0432056129452112       0.172382431691148
11        114.481727493905        118.390209595025        108.625717943132       0.033987754323063      0.0184631242589311         0.1889805895922
12        117.454355154667         118.42299585819        108.655549044011     -0.0501644145471079       0.016856512911759       0.160205579364997
13        113.079899118179        113.515032445841        108.609441857943     -0.0347064785888746     -0.0352900986616676       0.119458194105445
14         113.11197210216        118.394078056321        108.646377294047     -0.0307127701352564      0.0128465451063586       0.116270625472105
15        118.831493403168        113.548717470572           108.637379177      0.0161426325041034     -0.0333921519138444        0.12483902087559
16         118.88000994928        118.444206648364        108.690758177783     0.00893675323705951      0.0130192014369993      0.0980379131456316
17        112.399927351379         117.16745145688         108.62998551324    -0.00826939325323761     0.00192755274061924      0.0230459507665015
18        112.465730028031        114.807780784355        108.693354969292    -0.00737093992771092     0.00724840467405361      0.0185949466902306
19        119.541082265421        114.772888181001        108.651315068729      0.0199746047241238     0.00781936848249674       0.023608624206752
20        119.586890690314        117.244169958246        108.699556715286      0.0166500483973713     0.00293390098784811      0.0147330821041237
21        120.984996644004        114.854296707202         108.68671562138       0.133995357880385       0.125745360841761      0.0275139487463462
22        120.922592388053        117.128089255378        108.626655025802       0.133110353679279     -0.0232229338184333       0.038178189891582
23          111.0315510255        114.825384181832        108.667779352339      -0.012635774480288       0.124768935238844      0.0566713446302631
24        110.986927969368        117.116957928496        108.625499956223     -0.0113318997909768     -0.0210085508685651       0.062165335596426
25        121.542819821245        115.948090438624        108.612947360506      -0.060583765802848     -0.0243471946361354     0.00414153560492688
26        110.406417866557         116.00047727075        108.676581292085    -0.00892142907475963     -0.0284971338785584     -0.0115876020733309
27        121.625344166001        118.202070261103        108.673002120177      -0.171030629902563     -0.0467550143150233       0.177666302235568
28        121.647934022056        113.832453305051        108.691185735356      -0.178485368551841     -0.0730218172835518       0.163921518815355
29        110.400269550569        118.215080287138        108.697308799842      0.0263793932935742     -0.0518190040753158       0.134048376283576
30        110.373466512193        113.796070438662        108.666099521933      0.0283585635792457     -0.0755080881484906       0.136910736692306
31        112.600538173189        112.616126151039        108.657525350946     -0.0162185450841907      0.0266204643915872      0.0129020337192987
32         112.61352962081         119.37090944142        108.677280120211     -0.0180106993181294      0.0144572727572422     0.00696733034941203
33        119.429398738891        112.671348940571        108.705939205939      0.0606374674450455      0.0264987810096257     0.00484174171545758
34        119.324194573278        119.307936626524        108.607498366135      0.0547591512742128      0.0148174910894224     0.00125831966429404
35         114.92533343961        112.532007430623        108.619900866743     0.00563374600067866      0.0139736884659478   -0.000867917449788443
36        114.979612614495        119.425909651954        108.681041505813     0.00377299863414656      0.0134928363584828    -0.00434215782976216
37        117.065388709315        112.618421695033        108.704250785293      0.0204620469427354      0.0147770463093478    -0.00285281048110471
38        116.998637272938        119.391293305992        108.644360815407      0.0211710804170526      0.0126192322018448    -0.00503172798365082
39                     100                     100              105.656854       0.212143506118589       0.213940238415031      -0.975671293452979
40                     100                     100              102.828427       0.432038750683659       0.430467955164061   -0.000373632151004371
41                     100                     100                     100       0.212120102986982       0.213403508337127       0.976304943139242
42                     102                     102              105.656854      -0.344460298278658      -0.347528839253525      -0.277989096115314
43                     102                     102              102.828427     -0.0509332040297246     -0.0483693609706723    0.000679160244705719
44                     102                     102                     100      -0.344452672336988      -0.346425100129714       0.276876277551267
45                     104                     100              105.656854      0.0957435400264139       0.960040678561676      -0.808925956969438
46                     104                     100              102.828427     -0.0637235432631706       0.726735521532506    -0.00027297853618391
47                     104                     100                     100      0.0961172414676096       0.959407427902388       0.809357598838883
48                     106                     102              105.656854      -0.149042223310148      -0.514863954301596       -0.38147546673967
49                     106                     102              102.828427       0.142149479901482      0.0664781416438666    0.000368597223802166
50                     106                     102                     100      -0.150067418815794      -0.513700483680253        0.38093160550647
51                     108                     100              105.656854       0.109495408679146        1.06000887278751      -0.801894584367146
52                     108                     100              102.828427      -0.111490727034231       0.639951635004901    0.000256411624057473
53                     108                     100                     100       0.110553414710788        1.05996424798531       0.801418177870767
54                     110                     102              105.656854      -0.143053959541256      -0.581715896203571      -0.373846050669021
55                     110                     102              102.828427       0.147843381402096        0.13466031589662   -0.000969683781883033
56                     110                     102                     100      -0.145459460697307      -0.582491555600352       0.375509501819393
57                     112                     100              105.656854       0.131653914599213        1.10828743863145        -0.8106668762646
58                     112                     100              102.828427      -0.135442035871356       0.589577672957563     0.00116755443942214
59                     112                     100                     100       0.132819303285372        1.10975093815785       0.808683832350527
60                     114                     102              105.656854      -0.163811666288199      -0.618572034938697       -0.36137347391331
61                     114                     102              102.828427       0.168746764174917       0.174629777231138    -0.00264299487448675
62                     114                     102                     100      -0.165276829052629      -0.622533289224282       0.365744010000645
63                     116                     100              105.656854       0.166625055330537        1.14377181139171      -0.821224085081953
64                     116                     100              102.828427      -0.170807997488479       0.552402206381731      0.0016657611728819
65                     116                     100                     100       0.166620000919656        1.14616283443317       0.818426312065704
66                     118                     102              105.656854      -0.209581963994782      -0.650810376809112      -0.347937062681197
67                     118                     102              102.828427       0.214436717431932       0.207909865692675    -0.00263371965916389
68                     118                     102                     100      -0.208099398051578      -0.654750292197762       0.352296956864358
69                     120                     100              105.656854       0.223286940389629        1.18241067385718       -0.83523960829628
70                     120                     100              102.828427      -0.228707502722066       0.513031142364308     0.00116126885066879
71                     120                     100                     100       0.222117334227107        1.18386354128408       0.833264543778953
72                     122                     102              105.656854      -0.288863936837767      -0.687963665381549       -0.33030652588222
73                     122                     102              102.828427       0.293654762551466       0.244300161866991   -0.000955925286665074
74                     122                     102                     100      -0.286459760590445      -0.688718573992908       0.331953829680055
75                     124                     100              105.656854       0.326424882583282        1.23671475724214      -0.852097830176227
76                     124                     100              102.828427      -0.323063898513694       0.459505779463794    0.000248482011117629
77                     124                     100                     100       0.325364921087908        1.23666060032714       0.851632963678459
78                     126                     102              105.656854       -0.46175586522143      -0.727761178463097      -0.332039560763052
79                     126                     102              102.828427       0.397296175288397       0.281747089220816    0.000382334392011861
80                     126                     102                     100      -0.460727388136661      -0.726581240807686        0.33147549728625
81                     128                     100              105.656854       0.708304585696937        1.34076041082855      -0.754727346322158
82                     128                     100              102.828427      -0.280962854377111        0.39604778812149   -0.000282154997713498
83                     128                     100                     100       0.707929364274373        1.34011664187281       0.755174079685957
84                     130                     102              105.656854       -1.34062461701121      -0.708798850571437      -0.755432059066366
85                     130                     102              102.828427      -0.395829783288123       0.281061597561144    0.000693852454138606
86                     130                     102                     100       -1.34063289503197      -0.707677286317988         0.7542949977245
87                     100                     104              105.656854       0.959053321379121      0.0999773387136651      -0.808408929099819
88                     100                     104              102.828427       0.727715574579436     -0.0671655586384313     -0.0010360654391074
89                     100                     104                     100       0.958497914346054       0.098668972746335       0.810127320574978
90                     102                     106              105.656854      -0.513737363849577      -0.157000271756177      -0.382816219308024
91                     102                     106              102.828427      0.0651595283559276       0.148084031172517     0.00213879464380365
92                     102                     106                     100      -0.512403096635512      -0.154037758696593       0.379371028196611
93                     104                     104              105.656854       0.247132593558158        0.25283367787138      -0.388483319013427
94                     104                     104              102.828427      -0.179904400003368      -0.184329874924189    -0.00130701399290348
95                     104                     104                     100       0.247266582086011       0.250380147392424       0.390557849283217
96                     106                     106              105.656854      -0.233012349409268      -0.244890363075429      -0.504734101875449
97                     106                     106              102.828427       0.225130821824756       0.233227282933424     0.00260915173697869
98                     106                     106                     100      -0.234017171321353      -0.238990444990348       0.500564291469935
99                     108                     104              105.656854       0.172888459743941       0.338496339096397      -0.375205696558692
100                     108                     104              102.828427      -0.176978652193906      -0.268602562154012   -0.000256649467758333
101                     108                     104                     100       0.175955090376003       0.336583451755074       0.375521703428125
102                     110                     106              105.656854      -0.181021101821344      -0.292723129549449      -0.490025014708144
103                     110                     106              102.828427        0.19164636686188       0.285266105931749    -0.00119645276088074
104                     110                     106                     100      -0.190616483069157      -0.291550841667988       0.492057806214763
105                     112                     104              105.656854       0.166583545857054       0.378939270566021      -0.390942796236282
106                     112                     104              102.828427      -0.173878506059859      -0.314143757428365     0.00313191838152023
107                     112                     104                     100       0.171588956708367       0.383196704803051       0.385750796427101
108                     114                     106              105.656854      -0.187766015877096      -0.306661351313976      -0.466706142852037
109                     114                     106              102.828427        0.19726518316747       0.311200276068147    -0.00871635685646233
110                     114                     106                     100       -0.19499834071068      -0.321985683064444       0.481701237782562
111                     116                     104              105.656854        0.19828463600597       0.404726623963011      -0.406464123389934
112                     116                     104              102.828427      -0.203477451150989      -0.343778615946295       0.005358810970986
113                     116                     104                     100       0.198247760835011       0.413673747044344       0.397654094473138
114                     118                     106              105.656854      -0.241698523893301      -0.329151544859412       -0.45086482201781
115                     118                     106              102.828427       0.243759167698297        0.33421672180242    -0.00864126012186979
116                     118                     106                     100      -0.234354100760947      -0.344229272317069       0.465744138089703
117                     120                     104              105.656854       0.260921494225607       0.435727913406885      -0.421673543703683
118                     120                     104              102.828427      -0.265216077322639      -0.372746105552702     0.00309897168125865
119                     120                     104                     100       0.255922696000375       0.439912674436225       0.416517021675493
120                     122                     106              105.656854      -0.319268457282319      -0.362873601397781      -0.438212286227815
121                     122                     106              102.828427       0.320382109348303       0.357683242205729    -0.00114328378753741
122                     122                     106                     100       -0.30974844520798      -0.361631205819748       0.440204695073684
123                     124                     104              105.656854       0.368412786033233       0.463923131086664      -0.438545977825895
124                     124                     104              102.828427      -0.362746610461057      -0.397932874343365   -0.000279072716539264
125                     124                     104                     100       0.365347848488359       0.461985229100672       0.438886678182577
126                     126                     106              105.656854      -0.466283618814263      -0.369399537387285      -0.441640900649338
127                     126                     106              102.828427       0.401246047759694       0.361649385949155     0.00264897619629311
128                     126                     106                     100      -0.465258663558809      -0.363444254845505        0.43742244085241
129                     128                     104              105.656854       0.728052030385331       0.462472694825947      -0.330627933867534
130                     128                     104              102.828427      -0.282702234155534      -0.397142135570113    -0.00133127268155597
131                     128                     104                     100       0.727914630408589        0.45998609426732       0.332739349235012
132                     130                     106              105.656854       -1.23661377376605      -0.328444301434412      -0.853667333747596
133                     130                     106              102.828427      -0.458739833005579       0.323975353550324     0.00217926386553359
134                     130                     106                     100       -1.23795968541076      -0.325424837069339       0.850159091983763
135                     100                     108              105.656854        1.06290851249855       0.116564598260565      -0.799924101947756
136                     100                     108              102.828427       0.638315702213009      -0.116838081681798    -0.00244430194450327
137                     100                     108                     100        1.06055418636286        0.11417485814872       0.803905184556721
138                     102                     110              105.656854      -0.589735664256394      -0.155463440020242      -0.379145150222273
139                     102                     110              102.828427        0.13851864624528       0.156185110034536     0.00526599215068805
140                     102                     110                     100      -0.583651621686929      -0.150430273540228       0.370650890680171
141                     104                     108              105.656854       0.338156801821368       0.189367938552563      -0.371028847026013
142                     104                     108              102.828427      -0.266918495874682      -0.187553960687755    -0.00477391199713313
143                     104                     108                     100       0.334649528537544       0.182035180173273       0.378764351258567
144                     106                     110              105.656854      -0.297869886379536       -0.21834430563438      -0.506505708709918
145                     106                     110              102.828427       0.282964454326016        0.20994204541683      0.0110601464249777
146                     106                     110                     100      -0.288376386269923      -0.199161317603959        0.48555825167287
147                     108                     108              105.656854       0.221578974546424       0.250469690706362       -0.35862440598815
148                     108                     108              102.828427        -0.2286378324827      -0.243960587700049    -0.00482527391557744
149                     108                     108                     100       0.227880149689579       0.235589068896007        0.36795972675147
150                     110                     110              105.656854      -0.179550176357764      -0.256150963046592      -0.490475943923734
151                     110                     110              102.828427       0.215790416140165       0.242515638639248      0.0045110869899429
152                     110                     110                     100      -0.221653331676577      -0.232217087967524        0.47551103505184
153                     112                     108              105.656854       0.175457870469789       0.255968922344585      -0.393532626824224
154                     112                     108              102.828427      -0.198020233283614      -0.268914045653712     0.00836195631615714
155                     112                     108                     100       0.201181510847901       0.267037898881859       0.377842209102556
156                     114                     110              105.656854      -0.179074833924118      -0.184323862245182      -0.384754877735249
157                     114                     110              102.828427       0.209236651422018        0.24610742745853      -0.026835742073762
158                     114                     110                     100      -0.213437080765707      -0.249050396190367       0.470049477734977
159                     116                     108              105.656854       0.220745934581565       0.250500880230673      -0.425314930770452
160                     116                     108              102.828427      -0.226311549003424      -0.281718300021677      0.0190070255149124
161                     116                     108                     100       0.220293707032952       0.285875312253125        0.38883532458407
162                     118                     110              105.656854      -0.284569950839564      -0.197677566905067      -0.370268611460494
163                     118                     110              102.828427       0.266560767016586       0.257616834797393     -0.0263625447197263
164                     118                     110                     100      -0.249501537564003       -0.26006680691315       0.452575678056954
165                     120                     108              105.656854       0.299340877250547       0.290167692523267      -0.428128097189665
166                     120                     108              102.828427      -0.290304256574013      -0.303808276757937     0.00815668466678511
167                     120                     108                     100       0.274026151156293        0.30073031093978        0.41276411705594
168                     122                     110              105.656854      -0.356789749325702      -0.289669092657434      -0.433534497113566
169                     122                     110              102.828427        0.33398593786663       0.277389323188186     0.00466391280181885
170                     122                     110                     100       -0.31526443083434      -0.265871434974556       0.418893152515197
171                     124                     108              105.656854       0.375479781301854       0.320288822068082      -0.431084802839631
172                     124                     108              102.828427      -0.368416563943553      -0.316109978092071    -0.00489015262161354
173                     124                     108                     100       0.369120348158604       0.305382263242008       0.440414501740905
174                     126                     110              105.656854      -0.437671895088114      -0.274886293844677      -0.435199006255895
175                     126                     110              102.828427       0.380689622562511       0.268076721893057      0.0112425398313754
176                     126                     110                     100      -0.447079513581464      -0.255280740207941       0.414038477737885
177                     128                     108              105.656854       0.688328457990507       0.293801961850688      -0.326280881602021
178                     128                     108              102.828427      -0.246822323065305      -0.295318305657404    -0.00485617716094922
179                     128                     108                     100       0.691842813859708       0.286326919491209       0.334133630652218
180                     130                     110              105.656854       -1.17952539239209      -0.228152761946061      -0.839206940920382
181                     130                     110              102.828427      -0.512773893736684       0.231173271737219     0.00538908953131217
182                     130                     110                     100       -1.18571723727391      -0.222950689672482       0.830528647137035
183                     100                     112              105.656854        1.11818321782039       0.138029052304296      -0.806388394703459
184                     100                     112              102.828427       0.583565517434078      -0.140028401555844    -0.00435849718322165
185                     100                     112                     100          1.112644508816        0.13574106229155        0.81343579366035
186                     102                     114              105.656854      -0.638597356385443      -0.170316297012263      -0.371468201349599
187                     102                     114              102.828427       0.184782077427763       0.172954543751425     0.00850087159089896
188                     102                     114                     100      -0.626452702686155      -0.167664631985154       0.357611763853627
189                     104                     112              105.656854         0.4010348614322       0.186977059376132      -0.374722141256399
190                     104                     112              102.828427      -0.321938653192474      -0.185353016172553       -0.01156466961069
191                     104                     112                     100       0.384760421279912       0.177426632253126       0.394843611348399
192                     106                     114              105.656854       -0.35444946437397       -0.20739992873695      -0.516346993339697
193                     106                     114              102.828427       0.321422326334045       0.207418777359355      0.0224302102382239
194                     106                     114                     100      -0.322375572944302      -0.199556137275701       0.467001073495703
195                     108                     112              105.656854       0.282144107238356       0.255014823028145      -0.309014630736572
196                     108                     112              102.828427      -0.262106456622122      -0.222583564190169     -0.0209270220554948
197                     108                     112                     100       0.261274425748862       0.210725573958839       0.388869285787153
198                     110                     114              105.656854      -0.154678774777867      -0.190541639567372      -0.727296411578377
199                     110                     114              102.828427       0.224127559764556       0.225122235530268      0.0144966097779184
200                     110                     114                     100      -0.239598622802665      -0.219899059096604       0.457089903915942
201                     112                     112              105.656854      0.0977631281114212        0.22868706821463      -0.430133133237858