ITEM: TIMESTEP
0
ITEM: NUMBER OF ATOMS
422
ITEM: BOX BOUNDS ff ff ff
0.0000000000000000e+00 2.3200000000000000e+02
0.0000000000000000e+00 2.3200000000000000e+02
0.0000000000000000e+00 2.3200000000000000e+02
ITEM: ATOMS id xu yu zu fx fy fz
1        113.145932193839        116.283520815677              108.656854     -0.0055764225735811     -0.0111060957972457      0.0115865589744788
2        118.827484840071        116.289226241634              108.656854     0.00286245804468888     -0.0115313333939448         0.0127772577216
3        117.402344993917        116.287795112765              108.656854    -0.00200995113488103    -0.00812822149596659      0.0188815233903363
4        114.571072038949        116.284951942936              108.656854     0.00774604493505077    -0.00820209705778518      0.0196144530588657
5        116.701075167769        115.049724850164              108.656854     -0.0105365687503814      0.0158885237068104      0.0261470229437566
6        115.274826990867        115.048292608712              108.656854      0.0186739150677357      0.0164637583998096       0.027709119799544
7        115.272341865028        117.523022205388              108.656854       0.031361659708897    -0.00681258270674279      0.0531000109961172
8        116.698590041422        117.524454446583              108.656854     -0.0229536787976326    -0.00633937832557732      0.0500881346945732
9        114.517756920757        113.848446241175              108.656854      0.0341247249550928     -0.0179292586447883       0.178724586820086
10        117.460553482731        113.851401403886              108.656854     -0.0535577178273262     -0.0175959095553031       0.177045182099486
11        114.512863550773        118.721345651893              108.656854      0.0250183991371408       0.028266451005249       0.127518035236878
12        117.455660110655        118.724300814179              108.656854     -0.0438949896208657      0.0279747013275582       0.125117012026211
13        113.127311260236        113.862444587898              108.656854     -0.0332958373526682     -0.0156313095118842       0.124824701966625
14        113.122448808114        118.704554762274              108.656854     -0.0226497208576403      0.0219071363073551      0.0879550971803509
15        118.850968226168        113.868192293572              108.656854      0.0173158578518489     -0.0155234446184624       0.130158830287595
16        118.846105771496         118.71030247058              108.656854     0.00694508890374315      0.0234231798039432      0.0927876966216535
17        112.426795838139         117.49431994364              108.656854       -0.01244808981763     0.00280554110040127      0.0283948446052175
18         112.42922905874        115.071279815063              108.656854    -0.00442773710964367      0.0068644810350967      0.0151466480925031
19        119.546621196692        115.078427112272              108.656854      0.0147033631423237     0.00709625499033691      0.0143745492881953
20        119.544187975028         117.50146724296              108.656854      0.0233526740403472     0.00215741021759333      0.0289959104363048
21        120.955135022624        115.124435085822              108.656854       0.139628534673157        0.12181390244155      0.0320320754077559
22        120.952791362251        117.458288229576              108.656854        0.12181069971074     -0.0289362018823127      0.0333163284201972
23        111.020625673161        115.114458829493              108.656854     -0.0212148333996112        0.12405877989465      0.0553365826045155
24        111.018282013145        117.448311972274              108.656854    -0.00504228457545952     -0.0241123024731578      0.0576443246993118
25        121.586726460739        116.291997078118              108.656854     -0.0576456461912704     -0.0418319679000435     0.00887255039228872
26        110.386690574472        116.280749978664              108.656854    -0.00859053727193881     -0.0434898029397556    -0.00535971146553629
27        121.609196045824        118.485922140926              108.656854      -0.172090825920571     -0.0177435729591933       0.163559995372118
28          121.6136022867        114.098121569695              108.656854      -0.180131533903671      -0.046775791333052       0.178591718847623
29        110.359814750727        118.474625487296              108.656854      0.0248413286841058     -0.0280108751461418       0.134838472280044
30         110.36422099026         114.08682491673              108.656854      0.0295904441994648     -0.0480153820975655       0.147452916045121
31        112.599866822243        112.915454800093              108.656854     -0.0167006759276833      0.0284885663974586     0.00666635987671686
32        112.593103500599        119.650483321209              108.656854     -0.0152145948659781      0.0210171044922539      0.0106541065178913
33        119.380313532952        112.922263734631              108.656854      0.0592072094586817      0.0289860813614827    0.000558917928550809
34        119.373550207142        119.657292260389              108.656854       0.055600630917289      0.0189933711667423     0.00468895212101972
35        114.962286572867         112.86896056388              108.656854     0.00562688057164878      0.0159295076084081    -0.00282220333039812
36        114.955425108682        119.701722146141              108.656854     0.00390304209261016      0.0161110883099472     -0.0033811629903446
37        117.017991924022        112.871024909739              108.656854      0.0211332010338464      0.0160856071442457    -0.00374477541544256
38        117.011130457531        119.703786490585              108.656854      0.0216514313742431      0.0156335230777357    -0.00393677787402522
39                     100                     100              105.656854       0.212153738516859       0.213932736779261      -0.975699485454562
40                     100                     100              102.828427        0.43202107942993       0.430460053322182   -0.000350061375977541
41                     100                     100                     100       0.212142258882361       0.213422761310727       0.976292201157767
42                     102                     102              105.656854       -0.34446558344982      -0.347489471375878      -0.277934932280148
43                     102                     102              102.828427     -0.0509108266873533     -0.0483712297267619    0.000632975553970874
44                     102                     102                     100      -0.344484001547294      -0.346448417660037       0.276899554865542
45                     104                     100              105.656854      0.0957932323597816       0.960017204066014      -0.808962066060259
46                     104                     100              102.828427     -0.0637716129817548       0.726730274883995   -0.000245361913529636
47                     104                     100                     100      0.0961590829635482       0.959432485243492       0.809347132588147
48                     106                     102              105.656854      -0.149153654440382      -0.514787725681418      -0.381408352907847
49                     106                     102              102.828427       0.142244408565132       0.066471455320964    0.000320232299083126
50                     106                     102                     100      -0.150138405377998      -0.513734483564112       0.380944298016932
51                     108                     100              105.656854       0.109632198408925        1.06003915327344      -0.801913474974383
52                     108                     100              102.828427      -0.111593551549733       0.639903339743755    0.000257118853427786
53                     108                     100                     100       0.110621349925024        1.06001898983883       0.801435059443262
54                     110                     102              105.656854      -0.143351010590763      -0.581825810714495       -0.37385355507267
55                     110                     102              102.828427       0.148035004383227       0.134768064060272   -0.000928956308270288
56                     110                     102                     100      -0.145563950965931      -0.582583750734615       0.375452942089915
57                     112                     100              105.656854       0.131800932429095        1.10849741689717      -0.810627833069332
58                     112                     100              102.828427      -0.135538479171723       0.589418239671646     0.00109944000143775
59                     112                     100                     100       0.132871235327068        1.10986174468916       0.808754186415979
60                     114                     102              105.656854      -0.163971079758493      -0.619052588648698      -0.361524727240688
61                     114                     102              102.828427       0.168831724240794       0.174925998667269    -0.00245920789713364
62                     114                     102                     100      -0.165308079584564       -0.62269891374478       0.365597555800644
63                     116                     100              105.656854       0.166588669132792        1.14408671932089      -0.821145697235466
64                     116                     100              102.828427      -0.170771939832815       0.552186086024116     0.00155720387793453
65                     116                     100                     100       0.166587502593036        1.14629583523888       0.818523551855204
66                     118                     102              105.656854      -0.209327156785735      -0.651251657980761      -0.348092038666006
67                     118                     102              102.828427       0.214258078200616       0.208172441718832    -0.00245697609538401
68                     118                     102                     100      -0.207986079234429      -0.654891724149146        0.35216127557055
69                     120                     100              105.656854        0.22307833734993         1.1825805774378      -0.835195723955234
70                     120                     100              102.828427       -0.22854972583815       0.512910793687601      0.0010986101957127
71                     120                     100                     100       0.222009012246347        1.18394213471928       0.833323422715873
72                     122                     102              105.656854      -0.288502266362249      -0.687996113680592      -0.330324469525865
73                     122                     102              102.828427       0.293399202338272       0.244332600781881   -0.000928131596307574
74                     122                     102                     100      -0.286296222442279      -0.688750762455719       0.331922433604353
75                     124                     100              105.656854       0.326245439456193        1.23668148207312      -0.852111531623764
76                     124                     100              102.828427      -0.322920683576351        0.45951951962006    0.000258329673182807
77                     124                     100                     100       0.325259730613258        1.23666274582749       0.851631202869663
78                     126                     102              105.656854      -0.461607131000201      -0.727584825435226      -0.331977241359947
79                     126                     102              102.828427       0.397168949258869       0.281646672899441    0.000315821931987787
80                     126                     102                     100      -0.460627098150915      -0.726539202854747       0.331520117678088
81                     128                     100              105.656854       0.708237020159524        1.34066296807138      -0.754761972434708
82                     128                     100              102.828427      -0.280898810799632       0.396112106878322   -0.000242291068236581
83                     128                     100                     100       0.707872317044002        1.34008276493483       0.755142038312077
84                     130                     102              105.656854       -1.34062019816718      -0.708661383339848      -0.755376224307842
85                     130                     102              102.828427      -0.395850744231958        0.28097092790966     0.00062745465935734
86                     130                     102                     100        -1.3406007564965      -0.707628186174505       0.754349773369518
87                     100                     104              105.656854       0.959020935309816      0.0999649458032202      -0.808469997644541
88                     100                     104              102.828427        0.72771524748037     -0.0671826962330071   -0.000984386366702776
89                     100                     104                     100       0.958519801832316      0.0987029527440848       0.810101017388319
90                     102                     106              105.656854      -0.513618932943745      -0.156948799636413      -0.382674198345406
91                     102                     106              102.828427      0.0651371776556914        0.14810841430721     0.00202553457054898
92                     102                     106                     100      -0.512431947935324      -0.154094276323254       0.379418909146299
93                     104                     104              105.656854       0.247123362630051        0.25270098894747      -0.388606969506317
94                     104                     104              102.828427      -0.179938353466474      -0.184302926076805    -0.00120647001988006
95                     104                     104                     100       0.247316399955985       0.250411441041892       0.390515258607234
96                     106                     106              105.656854      -0.232984220740222      -0.244465483045581      -0.504382921673493
97                     106                     106              102.828427       0.225210737906134       0.233150844225211     0.00237326283818945
98                     106                     106                     100      -0.234108042193667      -0.239044564834755       0.500633298718407
99                     108                     104              105.656854       0.173204325871868       0.338309543407241      -0.375334117273759
100                     108                     104              102.828427      -0.177193873213096      -0.268585842094409    -0.00018275446645401
101                     108                     104                     100       0.176080898995077       0.336639475913347       0.375521302526713
102                     110                     106              105.656854      -0.182074676646324      -0.292491341632606      -0.489886176986279
103                     110                     106              102.828427       0.192145483212806       0.285303723232028    -0.00121799903330529
104                     110                     106                     100      -0.190822261600386      -0.291656165798476       0.491984557659203
105                     112                     104              105.656854       0.167180615696703       0.379397618161992      -0.390760860174219
106                     112                     104              102.828427      -0.174191267093266      -0.314412616739308     0.00292749286567956
107                     112                     104                     100       0.171720976687219       0.383351145995664       0.385908510685545
108                     114                     106              105.656854      -0.188505116401043      -0.308228733304405      -0.467681811766699
109                     114                     106              102.828427       0.197558536820283       0.311734626992947    -0.00805895073373165
110                     114                     106                     100      -0.195080430320246      -0.322192266372269        0.48135810138127
111                     116                     104              105.656854       0.198199529153972       0.405670102543999      -0.406033099175741
112                     116                     104              102.828427       -0.20340362289888      -0.344234275266592     0.00495914815790126
113                     116                     104                     100       0.198189785757966       0.413875849939169        0.39790544704087
114                     118                     106              105.656854      -0.240735172608449      -0.330475502031347      -0.451792497383443
115                     118                     106              102.828427       0.243274392243333       0.334649312931308    -0.00804176439660456
116                     118                     106                     100      -0.234126521605711      -0.344389850121035       0.465437826384067
117                     120                     104              105.656854       0.260233012615334       0.436072968255877      -0.421481111032619
118                     120                     104              102.828427       -0.26480211152164      -0.372923183028685     0.00291993194995117
119                     120                     104                     100       0.255698095014247       0.440005586852743       0.416641221805288
120                     122                     106              105.656854      -0.318148778313192      -0.362483986736722      -0.438114877696593
121                     122                     106              102.828427       0.319790228800702       0.357565823881089    -0.00121025473843768
122                     122                     106                     100      -0.309450302103648      -0.361629407427325       0.440200471012415
123                     124                     104              105.656854       0.368028220158318       0.463608429560754      -0.438658395829078
124                     124                     104              102.828427      -0.362471622029863      -0.397793175008481    -0.00017872030162832
125                     124                     104                     100       0.365168467294822        0.46194687763391       0.438839232922382
126                     126                     106              105.656854      -0.466246270980404       -0.36874556940731      -0.441291253827537
127                     126                     106              102.828427       0.401125221161243       0.361381808294901      0.0023542731592826
128                     126                     106                     100      -0.465133858136162      -0.363365652158459       0.437573125832002
129                     128                     104              105.656854       0.728046851432743       0.462190030267791      -0.330754160286343
130                     128                     104              102.828427      -0.282658494696682       -0.39698477536816    -0.00119608128727312
131                     128                     104                     100       0.727854058300241       0.459918139419679       0.332646078811487
132                     130                     106              105.656854       -1.23677580453118      -0.328199756787868      -0.853507973304803
133                     130                     106              102.828427      -0.458681964441307       0.323842492349829     0.00200900518612241
134                     130                     106                     100       -1.23795181513319      -0.325368495986354       0.850278793142942
135                     100                     108              105.656854        1.06281180850463       0.116644665351814      -0.800033775815812
136                     100                     108              102.828427       0.638327341596765       -0.11693291840567    -0.00236646639584146
137                     100                     108                     100        1.06058806833333       0.114259599610104       0.803880058795696
138                     102                     110              105.656854      -0.589487494247512      -0.155728919191151      -0.378896175808174
139                     102                     110              102.828427       0.138499768386177       0.156419917021955     0.00512846648516151
140                     102                     110                     100      -0.583713549411953       -0.15059086280286       0.370666403073355
141                     104                     108              105.656854        0.33775671624863       0.189223843135478      -0.371445007867208
142                     104                     108              102.828427      -0.266851338832605      -0.187623983168487    -0.00450624637343704
143                     104                     108                     100       0.334698037657295       0.182146601123652       0.378688056118163
144                     106                     110              105.656854       -0.29654510739593      -0.218204302043264      -0.504921054483599
145                     106                     110              102.828427       0.282881255340915       0.210269575086076      0.0104643177058902
146                     106                     110                     100      -0.288477099623212      -0.199395283854197       0.485617429515876
147                     108                     108              105.656854       0.221738096770906       0.249054615237993      -0.359906011978955
148                     108                     108              102.828427      -0.228921482214972      -0.243863628524074    -0.00430686929697406
149                     108                     108                     100       0.228051002078084       0.235706348754193       0.367897611136442
150                     110                     110              105.656854      -0.183620832414866      -0.253928295580862      -0.487115056816487
151                     110                     110              102.828427       0.216618253765572       0.242711851786886     0.00386482797254075
152                     110                     110                     100       -0.22188894147262      -0.232427667362086       0.475397802206232
153                     112                     108              105.656854       0.178358938169844        0.25671427994198      -0.392543323773105
154                     112                     108              102.828427      -0.198889656556076      -0.269205472738268     0.00784405780452817
155                     112                     108                     100       0.201414708297187       0.267193079712207       0.378124108068117
156                     114                     110              105.656854      -0.181240004319423      -0.189287281317539      -0.395454625159065
157                     114                     110              102.828427       0.209688213646249       0.246185913655666     -0.0253931829910104
158                     114                     110                     100      -0.213503194622683      -0.249123715195381       0.469518805966489
159                     116                     108              105.656854       0.220260793177221        0.25298525649258       -0.42240272796027
160                     116                     108              102.828427      -0.226113494610593      -0.282262928097646       0.017678837726434
161                     116                     108                     100       0.220188097265794       0.286026526705394       0.389338332209567
162                     118                     110              105.656854      -0.281757961080368      -0.200553626932403      -0.378394551177128
163                     118                     110              102.828427       0.265738431077127       0.257545368277787     -0.0252954620424177
164                     118                     110                     100      -0.249194976329867       -0.26009683012224       0.452139563240375
165                     120                     108              105.656854       0.296646782857396       0.290467370371788      -0.427254358840177
166                     120                     108              102.828427      -0.289306575160691      -0.303898146852899     0.00778943663575847
167                     120                     108                     100       0.273639714146916       0.300787919380561       0.412948357856348
168                     122                     110              105.656854      -0.352660584773211        -0.2875662299888      -0.430760268935068
169                     122                     110              102.828427       0.332959375299365       0.277303459838836     0.00390979210642348
170                     122                     110                     100      -0.314864033518213      -0.265925099893659       0.418959505658892
171                     124                     108              105.656854       0.375097482402963       0.318601505651444       -0.43229505055068
172                     124                     108              102.828427      -0.368021950828678      -0.315752010868213    -0.00428361184856325
173                     124                     108                     100       0.368867824767476       0.305336716225262       0.440225337464711
174                     126                     110              105.656854      -0.438930750592994      -0.273947208630397      -0.433433478020681
175                     126                     110              102.828427       0.380752547933679       0.267969724797026      0.0103848934692123
176                     126                     110                     100      -0.446951875510322      -0.255304526162289       0.414320839020224
177                     128                     108              105.656854       0.688773870217088       0.293294462946692      -0.326749218778021
178                     128                     108              102.828427      -0.246923173162356      -0.295130207393742    -0.00446908312712213
179                     128                     108                     100       0.691806561305559       0.286279085103132       0.333929986834927
180                     130                     110              105.656854       -1.18001166859006      -0.228059795366639      -0.838865247401783
181                     130                     110              102.828427      -0.512603189210281       0.231160902899581     0.00508634211220644
182                     130                     110                     100       -1.18573247972145       -0.22296429505999       0.830703909151139
183                     100                     112              105.656854        1.11823700551722       0.138345486057739       -0.80648576732013
184                     100                     112              102.828427       0.583455644681185      -0.140263845246746    -0.00434273630347115
185                     100                     112                     100        1.11275107121329        0.13588751314337       0.813479445509406
186                     102                     114              105.656854      -0.639008541703119      -0.171030473279659      -0.371414527859879
187                     102                     114              102.828427        0.18511010687594       0.173383075170112     0.00863061068820712
188                     102                     114                     100      -0.626650095865833      -0.167874154163262       0.357442060398978
189                     104                     112              105.656854       0.400636320683276       0.188064780209666      -0.375259013517483
190                     104                     112              102.828427      -0.322028977532208      -0.185968314855481     -0.0114399834192852
191                     104                     112                     100        0.38489059372471       0.177713864291907       0.394924639445626
192                     106                     114              105.656854      -0.356175756812661      -0.211083617072294      -0.516755146722311
193                     106                     114              102.828427        0.32199833994758       0.208617436713889      0.0230108115814621
194                     106                     114                     100      -0.322575467393037      -0.199922309548167       0.466598535338168
195                     108                     112              105.656854       0.278387707584372       0.258395186661762      -0.316535129282394
196                     108                     112              102.828427      -0.262382328865945      -0.223874560606028     -0.0204438935834901
197                     108                     112                     100       0.261425700847721       0.211107484336087       0.389045811301946
198                     110                     114              105.656854       -0.15375354172005       -0.21664891493453      -0.727147360138904
199                     110                     114              102.828427       0.224191335820111       0.226613483405906      0.0162415621940482
200                     110                     114                     100      -0.239564773709611      -0.220127008764674       0.456481014617274
201                     112                     112              105.656854       0.105450629851286       0.228236271870171      -0.431222615401316