ITEM: TIMESTEP
0
ITEM: NUMBER OF ATOMS
422
ITEM: BOX BOUNDS ff ff ff
0.0000000000000000e+00 2.3200000000000000e+02
0.0000000000000000e+00 2.3200000000000000e+02
0.0000000000000000e+00 2.3200000000000000e+02
ITEM: ATOMS id xu yu zu fx fy fz
1        113.145932193839        115.983520815677              110.556854     0.00299268097875915    -0.00123279372599341    -0.00624680452988306
2        118.827484840071        115.989226241634              110.556854    -0.00551309632843371    -0.00120074098829196    -0.00588052741258322
3        117.402344993917        115.987795112765              110.556854     0.00287854730170436     0.00264191163891088    -0.00660481241227149
4        114.571072038949        115.984951942936              110.556854     0.00251171676227911     0.00268406399510182    -0.00622349598277524
5        116.701075167769        114.749724850164              110.556854     0.00344314893135241     0.00435939599008234    -0.00646356436850956
6        115.274826990867        114.748292608712              110.556854     0.00364580829184988     0.00437098829332549    -0.00621458047751137
7        115.272341865028        117.223022205388              110.556854     0.00361593294273342     0.00274113234598515    -0.00665230833737793
8        116.698590041422        117.224454446583              110.556854     0.00337691901131801     0.00269348785828494    -0.00689670888512978
9        114.517756920757        113.548446241175              110.556854    -0.00342463116884412      -0.005947683875899    -0.00663631869472367
10        117.460553482731        113.551401403886              110.556854     -0.0133953852977078     -0.0059884957028987    -0.00538139474944573
11        114.512863550773        118.421345651893              110.556854    -0.00336255090105704     -0.0110543325084856    -0.00450672005751835
12        117.455660110655        118.424300814179              110.556854     -0.0129862948449761     -0.0107506710330603    -0.00329477472650827
13        113.127311260236        113.562444587898              110.556854      0.0142504865988041    -0.00735906136697047    -0.00719044266591943
14        113.122448808114        118.404554762274              110.556854      0.0141614598962237    -0.00700270085312639     -0.0054021514516221
15        118.850968226168        113.568192293572              110.556854     -0.0287630152604413    -0.00745227742655454    -0.00504507596907455
16        118.846105771496         118.41030247058              110.556854     -0.0282831056105547    -0.00653011434053794    -0.00331904598958561
17        112.426795838139         117.19431994364              110.556854      0.0036928281608669     0.00758679481426049    -0.00599914344503301
18         112.42922905874        114.771279815063              110.556854     0.00365135205674324     0.00111350034574153    -0.00547868366584046
19        119.546621196692        114.778427112272              110.556854     0.00536812557880078     0.00104623548973221    -0.00714558020601884
20        119.544187975028         117.20146724296              110.556854     0.00519282401676157      0.0073035977734614    -0.00764916579700715
21        120.955135022624        114.824435085822              110.556854       0.112582850645064       0.136549107253955     -0.0235348640928306
22        120.952791362251        117.158288229576              110.556854       0.110452003358475     -0.0442305030394224     -0.0288859261197965
23        111.020625673161        114.814458829493              110.556854    -0.00665625587141875       0.137586960595775      0.0042253908080812
24        111.018282013145        117.148311972274              110.556854    -0.00547519733621248     -0.0398836847344157    -0.00145122246347785
25        121.586726460739        115.991997078118              110.556854     -0.0391138994117787      -0.024473524979116     0.00805454956719034
26        110.386690574472        115.980749978664              110.556854     -0.0192015591030858     -0.0261380147293615    -0.00939247681699547
27        121.609196045824        118.185922140926              110.556854      -0.126471590851298     -0.0586821167362017      0.0340178223962269
28          121.6136022867        113.798121569695              110.556854      -0.132296716887893     -0.0535275498909505      0.0216046994752049
29        110.359814750727        118.174625487296              110.556854    -0.00278683490584514     -0.0668101454450935    -0.00476097850347871
30         110.36422099026         113.78682491673              110.556854    1.23100470377981e-05     -0.0530263317776839     -0.0182128123304453
31        112.599866822243        112.615454800093              110.556854     -0.0292370883925152      0.0128622673817192     0.00347790889679407
32        112.593103500599        119.350483321209              110.556854     -0.0287359051330336      0.0257672116548329     -0.0032833185195387
33        119.380313532952        112.622263734631              110.556854      0.0680083369063333      0.0134719296618639    -0.00334783958475988
34        119.373550207142        119.357292260389              110.556854      0.0660142635654635      0.0238965925685337    -0.00982754833470239
35        114.962286572867         112.56896056388              110.556854      0.0124242690325749     0.00739674494802664   -0.000189487369521035
36        114.955425108682        119.401722146141              110.556854      0.0121867132221874      0.0179236055235771    -0.00468408776994159
37        117.017991924022        112.571024909739              110.556854      0.0120766753197595      0.0074995320423279    -0.00145471365369426
38        117.011130457531        119.403786490585              110.556854      0.0113402692840069      0.0175321971080414    -0.00587911152963567
39                     100                     100              105.656854       0.212150292686477       0.213850130065934      -0.975575805390878
40                     100                     100              102.828427        0.43202065418256       0.430600886060821   -0.000402341337157907
41                     100                     100                     100       0.212159353700519       0.213280587137728       0.976284883917883
42                     102                     102              105.656854      -0.344457359861733      -0.347283263434878      -0.278152775095767
43                     102                     102              102.828427     -0.0508975201905205     -0.0486665365652001     0.00068437299051195
44                     102                     102                     100      -0.344538930289731       -0.34619215879986       0.276955202619672
45                     104                     100              105.656854      0.0958376182200056       0.959924610245562      -0.808870563197649
46                     104                     100              102.828427     -0.0638694545658356       0.726880519953498   -0.000259721968123524
47                     104                     100                     100      0.0962855394315324       0.959300334342271       0.809312961747418
48                     106                     102              105.656854      -0.149305303945687      -0.514574709876103      -0.381525096939386
49                     106                     102              102.828427       0.142518141988626      0.0662007587829148    0.000288056348549122
50                     106                     102                     100      -0.150438630710349       -0.51354745850352       0.381030110342815
51                     108                     100              105.656854       0.109768488028142         1.0600554761035      -0.801992066575715
52                     108                     100              102.828427      -0.111848506041056        0.63988484514377    0.000318862939334229
53                     108                     100                     100       0.110890890088453        1.06005488978905        0.80140258374439
54                     110                     102              105.656854      -0.143747653499086      -0.582033469170528       -0.37356266430845
55                     110                     102              102.828427        0.14862421002656       0.135025150736202    -0.00104048743812809
56                     110                     102                     100      -0.146087186489493      -0.582819392436594       0.375437978171996
57                     112                     100              105.656854       0.131957749174323        1.10878581866696      -0.810996757948486
58                     112                     100              102.828427      -0.135810576162204       0.589017849346166     0.00123584439980907
59                     112                     100                     100       0.133133358899545        1.11021761985501       0.808776296627256
60                     114                     102              105.656854      -0.164222581144692      -0.619964477666693      -0.360738952307287
61                     114                     102              102.828427       0.169182951923851       0.175975796704964    -0.00257524292155792
62                     114                     102                     100      -0.165596969795297      -0.623479797957864       0.365397946055103
63                     116                     100              105.656854       0.166588584811172        1.14454350824196      -0.821673273942795
64                     116                     100              102.828427      -0.170771732109065       0.551557564226704     0.00172281897188604
65                     116                     100                     100       0.166587319332404        1.14683174150741       0.818585090764392
66                     118                     102              105.656854      -0.209075179133723      -0.652162189305454      -0.347307017240354
67                     118                     102              102.828427       0.213906042300442       0.209220730081281    -0.00257307868120791
68                     118                     102                     100      -0.207696527130229      -0.655671607449104       0.351961937458854
69                     120                     100              105.656854       0.222921843491687        1.18286866036492       -0.83556430840517
70                     120                     100              102.828427      -0.228277992089622       0.512510984969849      0.0012349335046841
71                     120                     100                     100       0.221747154764738        1.18429749742003       0.833345499642972
72                     122                     102              105.656854      -0.288107193961625      -0.688203626008882      -0.330033984740584
73                     122                     102              102.828427       0.292811867428389       0.244589053727434    -0.00103939972047829
74                     122                     102                     100      -0.285774294382091      -0.688985661208589       0.331907362489742
75                     124                     100              105.656854       0.326109697207151        1.23669844948394      -0.852190475056055
76                     124                     100              102.828427      -0.322666628957966       0.459500455523559    0.000319998534027471
77                     124                     100                     100       0.324991011759589        1.23669890813323       0.851598974642165
78                     126                     102              105.656854       -0.46145616232618      -0.727374276836132      -0.332092684764354
79                     126                     102              102.828427       0.396896461872641       0.281378285850855    0.000284007248424024
80                     126                     102                     100      -0.460328100418393      -0.726353383083819       0.331605078937855
81                     128                     100              105.656854       0.708192693431893        1.34057151936178      -0.754671482863167
82                     128                     100              102.828427      -0.280801237044224       0.396260952027145   -0.000256508605412814
83                     128                     100                     100       0.707746247593863        1.33995164214059       0.755108216109115
84                     130                     102              105.656854        -1.3406279724112      -0.708457278020371      -0.755592308913155
85                     130                     102              102.828427      -0.395864371834336       0.280678053329201    0.000678729823615032
86                     130                     102                     100       -1.34054584731851      -0.707373650823178       0.754404711159427
87                     100                     104              105.656854       0.958912659304531      0.0996742567644193      -0.808146986092544
88                     100                     104              102.828427       0.727845253187494        -0.0667959772025    -0.00106617145638964
89                     100                     104                     100       0.958449512418371      0.0983694743336065       0.810025260239452
90                     102                     106              105.656854      -0.513270550861674       -0.15614429225987       -0.38327896438164
91                     102                     106              102.828427      0.0648359900442283       0.147238916864848      0.0020019994994818
92                     102                     106                     100      -0.512336763861159       -0.15347909198222       0.379703944409298
93                     104                     104              105.656854       0.247113678133104       0.252132439000188      -0.388221379772453
94                     104                     104              102.828427      -0.180019185524815      -0.183653837550136    -0.00118271247582953
95                     104                     104                     100         0.2474913417665       0.249955890237391        0.39032725684561
96                     106                     106              105.656854      -0.233072950579517      -0.242697351026072      -0.504968143258328
97                     106                     106              102.828427        0.22562968091224       0.231703588785835     0.00196816491262068
98                     106                     106                     100      -0.234657590591766      -0.238300330159724       0.501126712567136
99                     108                     104              105.656854       0.173789803025779       0.337865264849932      -0.375276774027694
100                     108                     104              102.828427      -0.178003713589031      -0.268189072272558   -2.51591378531307e-05
101                     108                     104                     100       0.176791692232998       0.336466549761031       0.375381956591445
102                     110                     106              105.656854      -0.184535020348029      -0.292200351256928      -0.489549080093784
103                     110                     106              102.828427       0.194501096266881       0.285244191188328    -0.00143410698484323
104                     110                     106                     100      -0.192376042791958      -0.291821474092401       0.491957727867321
105                     112                     104              105.656854       0.168241050565002       0.380615428360992      -0.391589495062646
106                     112                     104              102.828427      -0.175406235978288      -0.315569524325878     0.00291634439381748
107                     112                     104                     100       0.172597740480222       0.384126926674652       0.386212024610614
108                     114                     106              105.656854      -0.190474961328994      -0.313665551735759      -0.466167115264777
109                     114                     106              102.828427       0.199272938547793       0.315330286654026    -0.00696245690023604
110                     114                     106                     100      -0.196074806999392      -0.324004517192635       0.480134658193481
111                     116                     104              105.656854       0.198197324750793       0.408187564257763      -0.407419242811732
112                     116                     104              102.828427      -0.203401335146141      -0.346523176924488     0.00474747345605301
113                     116                     104                     100       0.198188335721439       0.415274090877417       0.398535179161919
114                     118                     106              105.656854      -0.238755711233825      -0.335893059552156      -0.450279551580452
115                     118                     106              102.828427       0.241552341829722       0.338233974785789    -0.00694933100875533
116                     118                     106                     100      -0.233127756110619      -0.346197316753302       0.464217247741565
117                     120                     104              105.656854       0.259174735058812       0.437285163662311      -0.422307603974967
118                     120                     104              102.828427      -0.263588717091448      -0.374075023352203     0.00290941798766017
119                     120                     104                     100       0.254821929903342        0.44077833161414       0.416943733789327
120                     122                     106              105.656854      -0.315705850743754      -0.362189724093134      -0.437780633434977
121                     122                     106              102.828427       0.317446478083312       0.357501228144719    -0.00142556493412064
122                     122                     106                     100      -0.307901845129122      -0.361790532763331       0.440174323873392
123                     124                     104              105.656854       0.367446662326106       0.463168525152381      -0.438601645332749
124                     124                     104              102.828427      -0.361666277860469      -0.397398734391234   -2.26686629929975e-05
125                     124                     104                     100       0.364460775585393       0.461774180123687       0.438701121521897
126                     126                     106              105.656854       -0.46615823092481      -0.366995788580253      -0.441874109666706
127                     126                     106              102.828427        0.40071006212812       0.359944719352933     0.00195508131097425
128                     126                     106                     100      -0.464588110670397      -0.362624271988194       0.438062194191211
129                     128                     104              105.656854        0.72805578882611       0.461627336642061      -0.330371412817707
130                     128                     104              102.828427      -0.282577793047267      -0.396340858014928    -0.00117343532620735
131                     128                     104                     100       0.727679966799493       0.459465260536991       0.332460083162422
132                     130                     106              105.656854       -1.23711990426629      -0.327403493941741      -0.854108576452239
133                     130                     106              102.828427      -0.458383684794274       0.322980008227338     0.00198740424126636
134                     130                     106                     100       -1.23804632380638      -0.324756960241998        0.85056061403477
135                     100                     108              105.656854        1.06218852053217       0.115906238269358      -0.799353736390525
136                     100                     108              102.828427       0.638958651255793      -0.116142987074098    -0.00237354033749159
137                     100                     108                     100        1.06022204991689       0.113678777284715       0.803573376085132
138                     102                     110              105.656854      -0.587364657442662       -0.15376976220106      -0.380018391146567
139                     102                     110              102.828427       0.136963762166647       0.154790081324987     0.00452783718250078
140                     102                     110                     100      -0.583103076155433       -0.14964078817793       0.371592997160244
141                     104                     108              105.656854       0.336475212895699       0.186658926192251      -0.370462785420188
142                     104                     108              102.828427      -0.266185247316316      -0.185606864233152    -0.00383458257357553
143                     104                     108                     100       0.334681649392918       0.181072158701831       0.377837091659734
144                     106                     110              105.656854      -0.291295775792688      -0.208828812562751      -0.504297639955444
145                     106                     110              102.828427       0.281910757376229       0.205900940931228     0.00693026005354291
146                     106                     110                     100      -0.289071020114814       -0.19783618880705       0.487689273042537
147                     108                     108              105.656854       0.223161524755235       0.242928644942218       -0.36003435168542
148                     108                     108              102.828427      -0.230976214119279      -0.240986967131116    -0.00259849146574018
149                     108                     108                     100       0.229658257623747       0.234782719814933       0.366946788078828
150                     110                     110              105.656854      -0.201675118393231      -0.240173260805614      -0.482404287573243
151                     110                     110              102.828427       0.224798540112874       0.239493760172789    0.000319489951084128
152                     110                     110                     100      -0.225711096180921      -0.232084968467372       0.476072576482114
153                     112                     108              105.656854       0.187245209456971       0.261927639493875      -0.392610670533459
154                     112                     108              102.828427      -0.204450113940842      -0.271784179304829     0.00635317411927019
155                     112                     108                     100       0.204108068119271        0.26843280815425       0.379300081907703
156                     114                     110              105.656854       -0.19639225234524      -0.229615687233581      -0.418708136936129
157                     114                     110              102.828427       0.216694981103998       0.254141561423965     -0.0163943555654651
158                     114                     110                     100      -0.216263774176273      -0.251881626512889       0.465313765249636
159                     116                     108              105.656854       0.220232145854636       0.269256339489961       -0.42192686392968
160                     116                     108              102.828427      -0.226097175674788      -0.289714635194865      0.0129856020090615
161                     116                     108                     100         0.2201809926883       0.288910185028736       0.392278100835131
162                     118                     110              105.656854      -0.266440706233595      -0.240696262463002      -0.401528825337703
163                     118                     110              102.828427       0.258683786999194       0.265458350928808     -0.0163390913963958
164                     118                     110                     100      -0.246416019418965      -0.262841461861809       0.447950499169192
165                     120                     108              105.656854       0.287787610089525       0.295604734911107      -0.427331920788506
166                     120                     108              102.828427      -0.283755455867995      -0.306444509839107      0.0063158228240115
167                     120                     108                     100       0.270947752340968       0.302015463384479       0.414115599721421
168                     122                     110              105.656854      -0.334895896559899      -0.273762524491412      -0.426063436479885
169                     122                     110              102.828427       0.324847030544519        0.27405371875915    0.000362886200535463
170                     122                     110                     100      -0.311059601648419      -0.265566739851535       0.419643364508048
171                     124                     108              105.656854        0.37370047264556        0.31253378143333      -0.432406459744077
172                     124                     108              102.828427      -0.365989616848637      -0.312886059459926    -0.00259200324412163
173                     124                     108                     100        0.36727170214002        0.30441141711759       0.439279368736121
174                     126                     110              105.656854      -0.444124073869714       -0.26468382060717      -0.432858201903461
175                     126                     110              102.828427        0.38172771750546       0.263627064688245     0.00689549069499561
176                     126                     110                     100      -0.446368410105819      -0.253747254590312       0.416378090670461
177                     128                     108              105.656854       0.690039980463981       0.290758454014394      -0.325770286052454
178                     128                     108              102.828427      -0.247584627891583      -0.293128762016662     -0.0038086378335403
179                     128                     108                     100       0.691824300244721       0.285209578197437        0.33308717714376
180                     130                     110              105.656854        -1.1821092345541       -0.22612096945284      -0.839982845986008
181                     130                     110              102.828427      -0.511079916905052       0.229543186557395     0.00449691692754931
182                     130                     110                     100       -1.18634042359006      -0.222018532964284       0.831621089120145
183                     100                     112              105.656854         1.1163516513104       0.137340852790992      -0.805467754519588
184                     100                     112              102.828427       0.585087390010124      -0.139360974697483    -0.00403914607615257
185                     100                     112                     100        1.11187210875668       0.135298977386617       0.812754083825525
186                     102                     114              105.656854      -0.633685026573977      -0.169398693791616      -0.372583690979975
187                     102                     114              102.828427       0.181761565196341       0.172218466379463     0.00697842567584114
188                     102                     114                     100      -0.625375655271485      -0.167257451975473       0.359192867893722
189                     104                     112              105.656854       0.392683804959098       0.182989680910269      -0.374902864458029
190                     104                     112              102.828427      -0.318667575359172      -0.183060063344262    -0.00830828045055783
191                     104                     112                     100       0.384215828463358       0.176446398010254       0.392604221354889
192                     106                     114              105.656854      -0.332650754756677      -0.204371952345809      -0.505831649954527
193                     106                     114              102.828427       0.317662157606628       0.205596997739141      0.0127731870825813
194                     106                     114                     100      -0.322970759060668      -0.198897948853819       0.470957084000586
195                     108                     112              105.656854       0.258090748136069       0.224180840132797        -0.3490420605029
196                     108                     112              102.828427      -0.264998164520072      -0.217970721535168    -0.00925936342666049
197                     108                     112                     100       0.264165295910083       0.209741671479536       0.385615851302617
198                     110                     114              105.656854      -0.196791801504057      -0.216280817286181       -0.47660897155279
199                     110                     114              102.828427        0.24131848016751       0.226130716451137     0.00315302337859195
200                     110                     114                     100      -0.245993487190546      -0.220003574626464       0.458363496655355
201                     112                     112              105.656854       0.175857241929282       0.225171700590224       -0.41884480349693