ITEM: TIMESTEP
0
ITEM: NUMBER OF ATOMS
422
ITEM: BOX BOUNDS ff ff ff
0.0000000000000000e+00 2.3200000000000000e+02
0.0000000000000000e+00 2.3200000000000000e+02
0.0000000000000000e+00 2.3200000000000000e+02
ITEM: ATOMS id xu yu zu fx fy fz
1        113.145932193839        115.983520815677              111.456854      0.0030063810953378    -0.00117362075083886    -0.00210495466335247
2        118.827484840071        115.989226241634              111.456854    -0.00539925102488001    -0.00114412839468282    -0.00172027667720892
3        117.402344993917        115.987795112765              111.456854      0.0026068451439025     0.00252139059502943    -0.00252255143308884
4        114.571072038949        115.984951942936              111.456854     0.00252159320780349      0.0025621328143981    -0.00211742647378494
5        116.701075167769        114.749724850164              111.456854     0.00309373549621841     0.00438041435230369    -0.00233108514446381
6        115.274826990867        114.748292608712              111.456854     0.00366417926290723     0.00439127109773274    -0.00206376164944055
7        115.272341865028        117.223022205388              111.456854      0.0036362205213234     0.00237920185188012    -0.00252969173229372
8        116.698590041422        117.224454446583              111.456854     0.00303135844778529     0.00233414255675021    -0.00279267770497095
9        114.517756920757        113.548446241175              111.456854    -0.00317016177406699    -0.00543482877911412    -0.00283877280478416
10        117.460553482731        113.551401403886              111.456854     -0.0128402755060311    -0.00547470008577614    -0.00151827808895401
11        114.512863550773        118.421345651893              111.456854    -0.00311018263539906     -0.0107147928644784   -0.000617456872322817
12        117.455660110655        118.424300814179              111.456854     -0.0124515651565898     -0.0104280653340253    0.000662128998760505
13        113.127311260236        113.562444587898              111.456854      0.0147244886040584    -0.00693947219688848    -0.00326327335257499
14        113.122448808114        118.404554762274              111.456854      0.0146402288033981    -0.00670103883277474     -0.0013952228101956
15        118.850968226168        113.568192293572              111.456854     -0.0284978237068232    -0.00703101909738245    -0.00102565516195521
16        118.846105771496         118.41030247058              111.456854     -0.0280433909174837    -0.00625665501732806    0.000776228747764509
17        112.426795838139         117.19431994364              111.456854     0.00333114305162462     0.00715690029671462     -0.0019311044823728
18         112.42922905874        114.771279815063              111.456854     0.00329147052957574      0.0011257164772783    -0.00137394869228069
19        119.546621196692        114.778427112272              111.456854     0.00525505322705959     0.00106301380436594    -0.00311395125075048
20        119.544187975028         117.20146724296              111.456854     0.00508945600818274     0.00688946204445332    -0.00364776620726168
21        120.955135022624        114.824435085822              111.456854       0.107376993367306       0.135984906259892     -0.0197223482428001
22        120.952791362251        117.158288229576              111.456854       0.105373305933326     -0.0480230895203884     -0.0253829572373846
23        111.020625673161        114.814458829493              111.456854     -0.0077819868483856       0.136955768893153      0.0092952003467296
24        111.018282013145        117.148311972274              111.456854    -0.00665274025586199     -0.0439194820581971     0.00325399206052875
25        121.586726460739        115.991997078118              111.456854     -0.0365535929462819     -0.0233487862984445      0.0111754136449556
26        110.386690574472        115.980749978664              111.456854     -0.0180245366100451     -0.0249368690423733    -0.00698689513684612
27        121.609196045824        118.185922140926              111.456854      -0.120883620570715      -0.056464821130905       0.034528309478373
28          121.6136022867        113.798121569695              111.456854      -0.126393627568066     -0.0502410851893842      0.0215336584248247
29        110.359814750727        118.174625487296              111.456854   -4.24873775387857e-05     -0.0641129743051731     -0.0058478863303042
30         110.36422099026         113.78682491673              111.456854     0.00259824748622978     -0.0497302885569476      -0.019893200495297
31        112.599866822243        112.615454800093              111.456854     -0.0306604027734603      0.0114310788697064      0.0043671859804738
32        112.593103500599        119.350483321209              111.456854     -0.0301825824172539      0.0251840329030802    -0.00267898266846083
33        119.380313532952        112.622263734631              111.456854      0.0674056366023018      0.0120108400259438    -0.00274743062385343
34        119.373550207142        119.357292260389              111.456854      0.0655229563404006      0.0234160781759674    -0.00949896037683325
35        114.962286572867         112.56896056388              111.456854      0.0122890968177991     0.00645214062708382     0.00104746711958711
36        114.955425108682        119.401722146141              111.456854      0.0120631047213337      0.0175468371548068    -0.00363085386231957
37        117.017991924022        112.571024909739              111.456854      0.0110510949380636     0.00654891588254924   -0.000291688817062122
38        117.011130457531        119.403786490585              111.456854      0.0103526627096933      0.0171750443435744    -0.00490853856529137
39                     100                     100              105.656854       0.212143502483509       0.213760269118984       -0.97554602441042
40                     100                     100              102.828427        0.43201786420439       0.430693956511167   -0.000396812648380747
41                     100                     100                     100       0.212173686050141       0.213204613281866       0.976259656309043
42                     102                     102              105.656854      -0.344448815975284        -0.3470927266263      -0.278188238295958
43                     102                     102              102.828427     -0.0508799696182562     -0.0488406907676505    0.000649666462306376
44                     102                     102                     100      -0.344579052534916      -0.346068530161824       0.277014706758911
45                     104                     100              105.656854      0.0958954141368253       0.959814714993833      -0.808861481917972
46                     104                     100              102.828427     -0.0639449504804904        0.72698011340465   -0.000236280200822899
47                     104                     100                     100      0.0963643225912818       0.959231555116816        0.80928011417983
48                     106                     102              105.656854      -0.149471074315215      -0.514364566882101      -0.381509558871068
49                     106                     102              102.828427       0.142705924730685      0.0660446022732725    0.000226858373028793
50                     106                     102                     100      -0.150607557320667      -0.513462456728303       0.381085640523461
51                     108                     100              105.656854       0.109943400399704        1.06004241232586      -0.802028417899769
52                     108                     100              102.828427      -0.112031911776198       0.639882172916779    0.000341780930155471
53                     108                     100                     100       0.111046263036477        1.06007124437643       0.801396737728869
54                     110                     102              105.656854      -0.144159595130565      -0.582158872038748      -0.373486721156507
55                     110                     102              102.828427       0.148995315151447       0.135152836807732    -0.00103826358383252
56                     110                     102                     100      -0.146357675511075      -0.582925222636333       0.375395130248352
57                     112                     100              105.656854       0.132155256305854        1.10903349363646      -0.811079505282042
58                     112                     100              102.828427      -0.135999540039433       0.588789628485901     0.00121943475523363
59                     112                     100                     100       0.133278491882891        1.11038780640653       0.808836729242268
60                     114                     102              105.656854      -0.164478880435763      -0.620659268354033      -0.360647585474042
61                     114                     102              102.828427       0.169397350002364       0.176512625607954    -0.00244098945036756
62                     114                     102                     100      -0.165741170174019      -0.623818619058185       0.365217629637743
63                     116                     100              105.656854       0.166588349217879        1.14495438717278      -0.821774524964323
64                     116                     100              102.828427      -0.170771534526874       0.551196365632989     0.00167725651927377
65                     116                     100                     100       0.166587186610833        1.14708658412722       0.818685018378045
66                     118                     102              105.656854      -0.208818054787043      -0.652855692955371      -0.347215571829203
67                     118                     102              102.828427       0.213690988783213       0.209756693630588    -0.00243908579526998
68                     118                     102                     100       -0.20755189727576      -0.656009947577264       0.351781831360016
69                     120                     100              105.656854       0.222724525380884        1.18311578362294      -0.835647042306839
70                     120                     100              102.828427      -0.228089168223893        0.51228322589459     0.00121859614996954
71                     120                     100                     100       0.221602096349869        1.18446736639347         0.8334058544566
72                     122                     102              105.656854      -0.287696639199537      -0.688328405038247      -0.329958118490835
73                     122                     102              102.828427       0.292441757688114       0.244716106681315      -0.001037185758268
74                     122                     102                     100      -0.285504357413785       -0.68909098516237       0.331864576068161
75                     124                     100              105.656854       0.325935433890449        1.23668568305945      -0.852226832525522
76                     124                     100              102.828427      -0.322483815832973       0.459497644412238    0.000342792466546268
77                     124                     100                     100       0.324836063567607        1.23671525608128       0.851593254008135
78                     126                     102              105.656854      -0.461291243116984      -0.727165694518436      -0.332077238398227
79                     126                     102              102.828427       0.396709537869673       0.281223022474985    0.000223335859418144
80                     126                     102                     100      -0.460159833161465      -0.726268686955898       0.331660155138608
81                     128                     100              105.656854       0.708135079199356        1.34046248944673      -0.754662536832991
82                     128                     100              102.828427      -0.280725993846243       0.396359865559286    -0.00023326300384618
83                     128                     100                     100       0.707667721610523        1.33988324682888       0.755075648446428
84                     130                     102              105.656854       -1.34063625775608      -0.708268233282859      -0.755627579010732
85                     130                     102              102.828427      -0.395881972262064       0.280505047653015    0.000644422080127552
86                     130                     102                     100       -1.34050584167835      -0.707250665054172       0.754463699511383
87                     100                     104              105.656854       0.958810093273251       0.099449347399938      -0.808085041458924
88                     100                     104              102.828427        0.72791486281775     -0.0665871344311327     -0.0010259573528894
89                     100                     104                     100       0.958426412047664       0.098217639109747       0.809944955280348
90                     102                     106              105.656854      -0.513014344976996      -0.155616279477035      -0.383317781878115
91                     102                     106              102.828427      0.0647105159252063       0.146830836186728     0.00183430669173237
92                     102                     106                     100      -0.512326262424757      -0.153232113607123       0.379895520585402
93                     104                     104              105.656854       0.247118546118117       0.251693235007445      -0.388214028760853
94                     104                     104              102.828427      -0.180094169740415      -0.183322505453732    -0.00105932561276572
95                     104                     104                     100       0.247601285278877       0.249763033102034        0.39019764847163
96                     106                     106              105.656854      -0.233211346195287      -0.241607021325867      -0.504757317368072
97                     106                     106              102.828427       0.225922009057071       0.231097933510878     0.00160312667421276
98                     106                     106                     100      -0.234948153740854      -0.238035750141918       0.501373787096599
99                     108                     104              105.656854       0.174312130703485        0.33750303575261      -0.375376370411966
100                     108                     104              102.828427      -0.178481578149416      -0.267999507720086    9.16097089537735e-05
101                     108                     104                     100       0.177144595366459       0.336404783110718       0.375322427944245
102                     110                     106              105.656854      -0.186239372757669      -0.291943754062079      -0.489351451614607
103                     110                     106              102.828427       0.195649794073827       0.285241828648055    -0.00148229470249969
104                     110                     106                     100         -0.193042296514      -0.291902876617811       0.491895731691395
105                     112                     104              105.656854       0.169128618960873       0.381363647599539      -0.391626509215284
106                     112                     104              102.828427      -0.176063674481362       -0.31608847409446     0.00272195776320407
107                     112                     104                     100       0.172998991053239       0.384436758693807       0.386426275639512
108                     114                     106              105.656854      -0.191797341389146      -0.316400141927156      -0.466816038078845
109                     114                     106              102.828427       0.200061583979095       0.316688153774673    -0.00607455115752668
110                     114                     106                     100      -0.196476009630525      -0.324635987617499       0.479513890537944
111                     116                     104              105.656854       0.198195314231426       0.409800291332648      -0.407351354572962
112                     116                     104              102.828427      -0.203400033346552      -0.347540662935694     0.00430804357360485
113                     116                     104                     100       0.198187626903133       0.415817099639443       0.398932159328828
114                     118                     106              105.656854      -0.237426478517172      -0.338617607500106      -0.450925153640924
115                     118                     106              102.828427       0.240759815758304       0.339587560356413    -0.00606403210437508
116                     118                     106                     100      -0.232724546575108      -0.346827058464169       0.463597812435567
117                     120                     104              105.656854       0.258288352655018       0.438029082200336       -0.42234517062147
118                     120                     104              102.828427      -0.262931748958522      -0.374591382499969     0.00271597071255481
119                     120                     104                     100       0.254420737495165       0.441086808690541       0.417157313062131
120                     122                     106              105.656854      -0.314011803295587      -0.361929381615169      -0.437583346348272
121                     122                     106              102.828427       0.316302501125466       0.357495667451503     -0.0014743493006889
122                     122                     106                     100      -0.307237383947266      -0.361869947281104       0.440113116078335
123                     124                     104              105.656854       0.366927672603181       0.462808225437302      -0.438700430177733
124                     124                     104              102.828427      -0.361190814584108      -0.397209512693451    9.32463458274629e-05
125                     124                     104                     100        0.36410922712453       0.461712099192852       0.438641973284874
126                     126                     106              105.656854      -0.466021724690241      -0.365914014105132      -0.441666747684643
127                     126                     106              102.828427        0.40042027989799       0.359341857988322     0.00159336763913046
128                     126                     106                     100      -0.464299372360175      -0.362360050013616       0.438307702823217
129                     128                     104              105.656854       0.728050777228443       0.461191675992972      -0.330363700482418
130                     128                     104              102.828427      -0.282503235781529      -0.396011549928724    -0.00105133489612225
131                     128                     104                     100       0.727570613097516       0.459273182254828       0.332331506931906
132                     130                     106              105.656854       -1.23737371356334      -0.326879981520289      -0.854147926042106
133                     130                     106              102.828427      -0.458259069226903       0.322574557101658     0.00182168295765153
134                     130                     106                     100       -1.23805689785291      -0.324511051729881       0.850750588785088
135                     100                     108              105.656854        1.06175707226335       0.115484316585148      -0.799271565581728
136                     100                     108              102.828427       0.639250504297652       -0.11579656055535     -0.0022181442513755
137                     100                     108                     100        1.06009103732012       0.113455471396733       0.803367814158307
138                     102                     110              105.656854      -0.586214916624125      -0.152848160695599      -0.379884707221296
139                     102                     110              102.828427       0.136400441010758       0.154189776484943      0.0039883823132126
140                     102                     110                     100      -0.582941789845738      -0.149326551500551       0.372053543267544
141                     104                     108              105.656854       0.335787181477035       0.185309169256449      -0.370738935960343
142                     104                     108              102.828427      -0.266009606370657       -0.18482743644567    -0.00326515550485654
143                     104                     108                     100       0.334756327552251       0.180705737497249       0.377418448715076
144                     106                     110              105.656854      -0.289603297478985      -0.205373568632843      -0.501991715217897
145                     106                     110              102.828427       0.281968526863281         0.2046286714468     0.00529197371120803
146                     106                     110                     100      -0.289449672555686      -0.197404193910733       0.488455231383836
147                     108                     108              105.656854        0.22427455472227       0.240244036827602      -0.361326141034172
148                     108                     108              102.828427      -0.232024666537567      -0.240087673726425    -0.00174799928280274
149                     108                     108                     100       0.230356110610647       0.234528213113337        0.36660576829719
150                     110                     110              105.656854      -0.208617056299245      -0.236488368270275      -0.479065349424467
151                     110                     110              102.828427       0.227773728892598       0.238903127117163   -0.000644129542362159
152                     110                     110                     100      -0.227069631846442      -0.232058186136561       0.476158128796407
153                     112                     108              105.656854       0.191813491819313       0.263719493637466      -0.391678017072047
154                     112                     108              102.828427      -0.206636231910023      -0.272628689368422     0.00553617491275447
155                     112                     108                     100       0.205101170929458       0.268846593110861       0.379848334764005
156                     114                     110              105.656854      -0.202499899351303       -0.23812418915376      -0.428490816227006
157                     114                     110              102.828427       0.219031983968404       0.256257526560111     -0.0130364587659903
158                     114                     110                     100      -0.217163658460301      -0.252652874512732       0.463786544765678
159                     116                     108              105.656854       0.220217587931802       0.275391209195167      -0.418615582418751
160                     116                     108              102.828427      -0.226090760251315      -0.292011706959645      0.0106632407210909
161                     116                     108                     100       0.220178320614533       0.289794303382471       0.393493316188341
162                     118                     110              105.656854      -0.260281106286423      -0.249159847085755      -0.411262722435899
163                     118                     110              102.828427       0.256330211446659       0.267562503901458     -0.0129961830801561
164                     118                     110                     100      -0.245509617718506      -0.263608934704211       0.446428622189663
165                     120                     108              105.656854       0.283229094519597       0.297366588500455      -0.426414383965548
166                     120                     108              102.828427      -0.281571169852778      -0.307278092333959     0.00550700927299113
167                     120                     108                     100       0.269954459627326       0.302425144470794       0.414660154781916
168                     122                     110              105.656854      -0.328033613311977      -0.270046129001158      -0.422719442898357
169                     122                     110              102.828427       0.321889771659748       0.273450155459845   -0.000607541987807766
170                     122                     110                     100      -0.309705693974861      -0.265534677406591       0.419733471819755
171                     124                     108              105.656854       0.372604445771527       0.309864697874235       -0.43368299193703
172                     124                     108              102.828427      -0.364950464535519      -0.311986808754464    -0.00174644646894647
173                     124                     108                     100       0.366577830944484       0.304155269933335        0.43893902841247
174                     126                     110              105.656854      -0.445809667584204      -0.261256184303259      -0.430588573882581
175                     126                     110              102.828427       0.381676405956988       0.262358091234025     0.00527089619251837
176                     126                     110                     100      -0.445994217520963      -0.253314454456159       0.417140568155691
177                     128                     108              105.656854       0.690722158247039       0.289420819266632      -0.326040327259299
178                     128                     108              102.828427      -0.247760154933589      -0.292353664565134    -0.00324519906184456
179                     128                     108                     100       0.691750878386699       0.284844069127703       0.332671519632485
180                     130                     110              105.656854       -1.18324821567064      -0.225207196376631      -0.839853901390182
181                     130                     110              102.828427       -0.51051975711212       0.228946151313454     0.00396361433021407
182                     130                     110                     100       -1.18650173684624      -0.221705098892226       0.832078069867792
183                     100                     112              105.656854        1.11532679414653       0.136929421746997      -0.805420059193339
184                     100                     112              102.828427       0.585736207815619      -0.139050474694512    -0.00368758012560311
185                     100                     112                     100        1.11158304765125       0.135114374212646       0.812377704459971
186                     102                     114              105.656854      -0.631374315334318      -0.168903197178092      -0.372138620454809
187                     102                     114              102.828427       0.180691746251095       0.171912537961862     0.00600843424764708
188                     102                     114                     100      -0.625051324764614      -0.167106150822757        0.35991792101371
189                     104                     112              105.656854       0.389645357681769       0.181206479703647      -0.376419344552785
190                     104                     112              102.828427      -0.317804723713909      -0.182214333745662    -0.00674932428677117
191                     104                     112                     100        0.38415715793546       0.176099385433668        0.39170925187979
192                     106                     114              105.656854      -0.327345739200286      -0.202720131483395       -0.49921327298423
193                     106                     114              102.828427       0.317253170377405       0.204940301350644     0.00939267324804745
194                     106                     114                     100      -0.323377991763834      -0.198678669442868       0.472294305265227
195                     108                     112              105.656854       0.256981494278117       0.218133867215329      -0.360609987886478
196                     108                     112              102.828427      -0.266639598258716      -0.216763532297153    -0.00604749412185969
197                     108                     112                     100       0.265254966304703       0.209446487143995       0.384672493432985
198                     110                     114              105.656854       -0.21460308136397      -0.219364342226813      -0.469299231214384
199                     110                     114              102.828427       0.246333701459414       0.226025337570957    0.000823295693579237
200                     110                     114                     100      -0.247987466800319      -0.219990784536902       0.458655364308787
201                     112                     112              105.656854       0.192681438543277       0.226038144644465      -0.417277710553799