ITEM: TIMESTEP
0
ITEM: NUMBER OF ATOMS
422
ITEM: BOX BOUNDS pp pp pp
0.0000000000000000e+00 3.2000000000000000e+01
0.0000000000000000e+00 3.2000000000000000e+01
0.0000000000000000e+00 3.2000000000000000e+01
ITEM: ATOMS id xu yu zu fx fy fz
1        13.1752963856785        16.0128850075172         8.6862141918399    -0.00539318116079325   -0.000400804542820412     0.00548372360647292
2        18.8028776505475        15.9646190521107        8.63224281047635     0.00645421787214985     0.00134996821316617      0.0116132959997653
3        17.4468519557364        16.0323020745844        8.70135696181944    -0.00451095607051503    -0.00120923348316573      0.0086503694620271
4        14.5684558127311        15.9823357167179        8.65423377378203     0.00535405316228342    0.000768199593597648      0.0135829878546237
5        16.6663865740232        14.7150362564177        8.62216140625398     -0.0263331860422911      0.0148952304932347      0.0456343657018977
6        15.2402356627397        14.7137012805842        8.62225867187232      0.0290681481457826      0.0172297338816293      0.0545508493739606
7        15.2303156909063        17.1809960312665        8.61482382587878       0.027149174401768     -0.0185446855024836      0.0508724215739224
8        16.6847146036145        17.2105790087755        8.64297456219292     -0.0233303356174357     -0.0146651711239018       0.039053898976313
9        14.4855823723217        13.5162716927394        8.62467545156432       0.031396982907285     -0.0312768878772056       0.167245065524075
10        17.4465774791842        13.5374254003389        8.64287399645283     -0.0324681864273559     -0.0271293496561022       0.150711594066066
11        14.5147017678139         18.423183868934        8.65868821704096      0.0299244005620832      0.0245946217280276       0.149668446848361
12        17.4443159223904        18.4129566259141        8.64550581173524     -0.0331396101079902      0.0246145736955669       0.153547198082504
13        13.0945222101289        13.5296555377907        8.62406094989314     -0.0407981337889632     -0.0212300960069227        0.11228108286726
14        13.0864899201289        18.3685958742895        8.62089111201519     -0.0435160224627783      0.0175911458932573       0.119520370723204
15        18.8174747714895        13.5346988388935        8.62335654532145      0.0408176074205917     -0.0232382886726657       0.125729206828182
16        18.8604231669449        18.4246198660291        8.67116739544864       0.035414706340475      0.0174870677921476       0.101501455424896
17         12.471485405224         17.239009510725        8.70153956708506     -0.0142723738570314    -0.00839942986997077      0.0169142407396304
18         12.429599984573        14.7716507408969        8.65722092583344     -0.0150862852748085      0.0091485927336656      0.0205384074413912
19        19.5253696398676        14.7571755554474        8.63559844317532      0.0180510018375922      0.0105491382766667      0.0268210650635136
20        19.5692465746432        17.2265258425745        8.68190859961497      0.0138788018584514    -0.00843506679660973      0.0171633278506049
21        20.9961355350937         14.865435598292        8.69785051246962     -0.0221783254047961      0.0191880220720138      0.0477769420999082
22        21.0016704620258        17.2071673293508        8.70572909977504     -0.0233033973784307     -0.0185825674631134      0.0511851886897615
23         11.054334821296        14.8481679776274        8.69055914813487      0.0227549214850114      0.0184216539882983       0.046611619256589
24        11.0192299218788        17.1492598810071        8.65779790873346      0.0257882976738971     -0.0216219436339412       0.057378474283622
25        21.6171105476634        16.0223811650416        8.68723408692389    -0.00128853907770837   -0.000390276690689084     -0.0032828800519631
26        10.3998043631148        15.9938637673077        8.66996378864322     0.00142111904580959    0.000112856652463981    -0.00264721064151238
27        21.6098718455789        18.1865979406812        8.65752579975487     -0.0111082723917737     0.00530438864486043      0.0677442409612596
28        21.5787126696314         13.763231952626        8.62196038293126     -0.0133027207228444     -0.0074646237249955      0.0757711844708521
29        10.3168085142386        18.1316192508074        8.61384376351111      0.0111172245125385     0.00461384526595332      0.0856713622521672
30         10.328056119476        13.7506600459453        8.62068512921555      0.0108438115707337    -0.00823705636845856      0.0800367074050151
31        12.6303392023648        12.6459271802155         8.6873223801222   -0.000560762069921224   -0.000547640576027018    -0.00915989433251301
32        12.5991591382962        19.3565389589061        8.66290563769688   -0.000602097652623767    0.000564410199244014    -0.00915586717136129
33        19.3737625009066         12.615712702586         8.6502989679547    0.000619009302211017   -0.000628257565593394    -0.00909268808152312
34        19.3372562618305         19.320998315077        8.62055605468806    0.000916372856261977    0.000898227645639215    -0.00851252632710246
35        15.0032845199188        12.6099585109315        8.69784794705194    0.000730788291495078    -0.00118974325063108     -0.0080430034589474
36        14.9972291743848        19.4435262118437        8.69865406570283    0.000620750448968162     0.00109870216348271    -0.00831000545535212
37        17.0568770048297        12.6099099905474        8.69573508080815   -0.000766259867191071    -0.00133178357710964    -0.00778111156459369
38        17.0252111575395        19.4178671905931         8.6709307000085    -0.00079362039613001     0.00135299937707335    -0.00785640059290613
39                       0                       0                5.656854                       0                       0                       0
40                       0                       0                2.828427                       0                       0                       0
41                       0                       0                       0                       0                       0                       0
42                       2                       2                5.656854    6.03994396303908e-10     8.5221961989729e-10    2.14952609343116e-10
43                       2                       2                2.828427                       0                       0                       0
44                       2                       2                       0                       0                       0                       0
45                       4                       0                5.656854                       0                       0                       0
46                       4                       0                2.828427                       0                       0                       0
47                       4                       0                       0                       0                       0                       0
48                       6                       2                5.656854    1.80253163346138e-08    3.67652877349539e-08    9.45012911729128e-09
49                       6                       2                2.828427    6.28589854512429e-10    1.33319036941222e-09    6.69372249770474e-10
50                       6                       2                       0                       0                       0                       0
51                       8                       0                5.656854    6.63914633752285e-10    7.16658690279431e-11    4.68042401340839e-10
52                       8                       0                2.828427     3.7851203828738e-10   -1.75097189171408e-11    4.79568838708812e-10
53                       8                       0                       0                       0                       0                       0
54                      10                       2                5.656854    7.68693828057051e-08    2.99911373690648e-07    7.90514086619247e-08
55                      10                       2                2.828427    2.79177998360675e-09    1.09538597427445e-08    5.60320658104795e-09
56                      10                       2                       0    9.47919971259691e-10    4.19646178886464e-09    3.24604635533946e-09
57                      12                       0                5.656854    1.34914749930892e-09    2.07918969268673e-10    2.19260332225662e-09
58                      12                       0                2.828427    1.68383662643551e-09    1.80871283222403e-10    5.15261563785742e-09
59                      12                       0                       0                       0                       0                       0
60                      14                       2                5.656854    4.77410352436282e-08    7.35606065805778e-07    1.96939527697325e-07
61                      14                       2                2.828427    1.63718229260546e-09    2.56338677438644e-08    1.32893183540448e-08
62                      14                       2                       0    7.77414722646728e-10    1.08657438020783e-08    8.48921305910584e-09
63                      16                       0                5.656854    5.13085991419589e-12    1.93386048694288e-10    3.30540099230041e-09
64                      16                       0                2.828427    2.27125451180756e-10    1.14008676059934e-09    7.65708426541768e-09
65                      16                       0                       0                       0                       0                       0
66                      18                       2                5.656854   -4.73087945594997e-08    7.38813680189639e-07    1.97753892343837e-07
67                      18                       2                2.828427   -1.62653237072554e-09    2.57305363849791e-08    1.33455963514005e-08
68                      18                       2                       0    -7.7578790956577e-10    1.09226336678837e-08    8.53860182956976e-09
69                      20                       0                5.656854   -1.36598451977266e-09    2.30743858017022e-10    2.19936435904508e-09
70                      20                       0                2.828427   -1.70887218053677e-09    2.32357513521973e-10    5.17168156174548e-09
71                      20                       0                       0                       0                       0                       0
72                      22                       2                5.656854   -7.77194610204134e-08     2.9928986598745e-07    7.88363305661494e-08
73                      22                       2                2.828427   -2.82646057169264e-09    1.09375238833775e-08     5.5998223498257e-09
74                      22                       2                       0   -9.81558703564825e-10    4.23963834812475e-09     3.2833151987069e-09
75                      24                       0                5.656854   -6.69821293762415e-10    6.95767290852143e-11     4.6615226478803e-10
76                      24                       0                2.828427   -3.83637109086022e-10    4.18785138871784e-11    4.79793576136525e-10
77                      24                       0                       0                       0                       0                       0
78                      26                       2                5.656854   -1.75270534613939e-08    3.49977620043802e-08    9.01707609360254e-09
79                      26                       2                2.828427   -5.51688275890621e-10    1.11782251666793e-09    5.69721025774613e-10
80                      26                       2                       0                       0                       0                       0
81                      28                       0                5.656854                       0                       0                       0
82                      28                       0                2.828427                       0                       0                       0
83                      28                       0                       0                       0                       0                       0
84                      30                       2                5.656854   -5.53076757801416e-10    7.72562428331208e-10    1.94736429297933e-10
85                      30                       2                2.828427                       0                       0                       0
86                      30                       2                       0                       0                       0                       0
87                       0                       4                5.656854    1.85158672823501e-11    3.20033470587853e-10    9.72387474686228e-11
88                       0                       4                2.828427                       0                       0                       0
89                       0                       4                       0                       0                       0                       0
90                       2                       6                5.656854    1.03563115334095e-07    9.49772004033525e-08    3.53314148830635e-08
91                       2                       6                2.828427    3.86063637278757e-09    3.49931626990349e-09    2.53714630608719e-09
92                       2                       6                       0    1.18669943138384e-09    1.10442385803128e-09     1.2283973587852e-09
93                       4                       4                5.656854    1.15094989695093e-08    1.58024368229675e-08    4.80025452006971e-09
94                       4                       4                2.828427    1.39016325207375e-08    1.92995270753812e-08    1.13717532768528e-08
95                       4                       4                       0    1.54720685919279e-10    2.17851601280786e-10    1.97214489436547e-10
96                       6                       6                5.656854     3.3826219596998e-06    5.04971365541591e-06    1.92120719108744e-06
97                       6                       6                2.828427     9.3300011027334e-08     1.3702564642966e-07    1.00870627768955e-07
98                       6                       6                       0    3.60044469557645e-08    5.22349619975371e-08    5.70362479536567e-08
99                       8                       4                5.656854    1.29502687263021e-07    3.07668106871611e-07    9.59759285563252e-08
100                       8                       4                2.828427    1.32636032388356e-07    3.11538728806586e-07    1.88033207593717e-07
101                       8                       4                       0    1.80207151050118e-09    4.27736839464068e-09    3.83245249801314e-09
102                      10                       6                5.656854    2.15325512800091e-05    6.49930820067054e-05    2.60094275263278e-05
103                      10                       6                2.828427    4.51341965127815e-07    1.33502377826046e-06     1.0230348432176e-06
104                      10                       6                       0    1.37758789597553e-07    3.96865284526903e-07    4.45060716560043e-07
105                      12                       4                5.656854    2.57317526406981e-07    1.56074548742459e-06    5.02977068665693e-07
106                      12                       4                2.828427    2.33669365052479e-07    1.37395794993375e-06    8.51824600436323e-07
107                      12                       4                       0    2.92742375540269e-09    1.67521861942393e-08    1.53262778171753e-08
108                      14                       6                5.656854    1.17908440907944e-05     0.00018222068746718    7.53758277276695e-05
109                      14                       6                2.828427    2.46742877715244e-07    3.32964347335031e-06    2.62505628530946e-06
110                      14                       6                       0    7.55032013757837e-08    8.93117663442663e-07    1.02527715012195e-06
111                      16                       4                5.656854    2.30651209143567e-09    2.33467703633715e-06    7.60543469239738e-07
112                      16                       4                2.828427    1.64482022530388e-09    2.01241022249183e-06     1.2599752247862e-06
113                      16                       4                       0    8.78479885729907e-12    2.40431681007431e-08    2.21844278783601e-08
114                      18                       6                5.656854   -1.16416042085531e-05    0.000183230776880083    7.58565209476244e-05
115                      18                       6                2.828427   -2.45384040893502e-07    3.33835565001913e-06     2.6354749670895e-06
116                      18                       6                       0    -7.5654549557621e-08    8.93154632347058e-07     1.0265200716141e-06
117                      20                       4                5.656854   -2.60624237676044e-07    1.56768745348538e-06    5.05269813444403e-07
118                      20                       4                2.828427   -2.35604533034309e-07    1.37639741841015e-06    8.54614518925404e-07
119                      20                       4                       0   -2.95789223751908e-09    1.67689275410984e-08    1.53592798303239e-08
120                      22                       6                5.656854   -2.17935825356778e-05    6.45108952225597e-05    2.58375995375252e-05
121                      22                       6                2.828427   -4.55402465447902e-07    1.32405481129756e-06    1.01666877506614e-06
122                      22                       6                       0   -1.38508747511554e-07    3.93220505375888e-07     4.4175646307855e-07
123                      24                       4                5.656854    -1.2910186587345e-07    3.01361386915244e-07    9.40008156892669e-08
124                      24                       4                2.828427    -1.3168259400749e-07    3.05063113907584e-07    1.84378370260806e-07
125                      24                       4                       0   -1.78137873121859e-09    4.11558077975364e-09    3.70801065622266e-09
126                      26                       6                5.656854   -3.26822710933438e-06    4.80366868992157e-06    1.82602195924421e-06
127                      26                       6                2.828427   -9.06458580518042e-08    1.31381601856096e-07    9.66900753479788e-08
128                      26                       6                       0   -3.48555300493982e-08    4.96611932713544e-08    5.44901720048938e-08
129                      28                       4                5.656854   -1.10152806615995e-08     1.4951970402605e-08     4.5372204300126e-09
130                      28                       4                2.828427   -1.33930894131265e-08    1.83868703641054e-08    1.08253212066266e-08
131                      28                       4                       0   -1.49999144212028e-10      2.068602359248e-10    1.87588260732753e-10
132                      30                       6                5.656854    -9.6800460110849e-08    8.84787349189516e-08    3.28197465861194e-08
133                      30                       6                2.828427   -3.64515644378829e-09    3.28568032786804e-09    2.37489265371859e-09
134                      30                       6                       0    -1.0884044684968e-09    1.00335447725965e-09    1.11434034249655e-09
135                       0                       8                5.656854    8.19814968965362e-10    1.29606629634629e-08    6.17102560197466e-09
136                       0                       8                2.828427    8.14861013815569e-10    1.47105201536853e-08    1.38288800163548e-08
137                       0                       8                       0    1.45663673908292e-11    1.56590020725021e-10     2.3451500489621e-10
138                       2                      10                5.656854    3.36089984885229e-06    1.69049968830515e-06    1.16222865161128e-06
139                       2                      10                2.828427    9.46280409767128e-08    4.81790527180937e-08    6.33217982758332e-08
140                       2                      10                       0    3.80106575558037e-08     1.9479571855171e-08    3.73566495912322e-08
141                       4                       8                5.656854    1.07098039407946e-06    9.51571235676808e-07    4.67842554798578e-07
142                       4                       8                2.828427    8.87410055113836e-07     7.8502080246818e-07    7.43384941535584e-07
143                       4                       8                       0    1.02655264915808e-08    9.02764613379688e-09    1.25696484231037e-08
144                       6                      10                5.656854    0.000291861587039606      0.0002488457099563    0.000181177159332097
145                       6                      10                2.828427    4.10976899316649e-06    3.47292156500429e-06    4.77691965168995e-06
146                       6                      10                       0    8.96810664058501e-07    7.50254244819148e-07    1.48048090653522e-06
147                       8                       8                5.656854    2.37529814173693e-05    4.05445121064387e-05    2.08438408119642e-05
148                       8                       8                2.828427    1.23778653347521e-05    2.02959161952757e-05    1.99848515305481e-05
149                       8                       8                       0    9.37039708931476e-08    1.47932201074771e-07    2.12172002187625e-07
150                      10                      10                5.656854     0.00286573481318905     0.00580529633142932     0.00459892967898893
151                      10                      10                2.828427    2.45490505815165e-05    4.71701754234513e-05    6.94465997043649e-05
152                      10                      10                       0    3.56760322232089e-06    6.41043985474739e-06    1.33521435871424e-05
153                      12                       8                5.656854    6.21592382811609e-05    0.000290763036463813    0.000162173131715571
154                      12                       8                2.828427    2.38779355073706e-05    0.000105882075630433    0.000110673264841232
155                      12                       8                       0    1.45236539397128e-07    6.01472326336064e-07    9.01707537545582e-07
156                      14                      10                5.656854    0.000989884023644605       0.015304318601061       0.013299218820608
157                      14                      10                2.828427     9.6369794411066e-06    0.000113554758939218    0.000180050050538322
158                      14                      10                       0    1.57464445650343e-06     1.3618805182965e-05    2.99182845490343e-05
159                      16                       8                5.656854    5.69961294593258e-07    0.000423099918827036    0.000241560117733411
160                      16                       8                2.828427    8.93794636188202e-08    0.000149982374633677    0.000160050480507185
161                      16                       8                       0   -1.17650030809326e-10    8.33502850383135e-07    1.27210536651854e-06
162                      18                      10                5.656854    -0.00100899623718259       0.015314587188727      0.0133434776340379
163                      18                      10                2.828427    -9.7527322368817e-06    0.000113230955921104    0.000180042417343173
164                      18                      10                       0   -1.60374405371666e-06    1.35607659468185e-05    2.98480946919475e-05
165                      20                       8                5.656854   -6.32478728992928e-05    0.000291661745681583    0.000163093319754937
166                      20                       8                2.828427   -2.41659748597142e-05    0.000105635248656528    0.000110746152109997
167                      20                       8                       0   -1.46467590208616e-07    5.98168481112269e-07    8.98797133326632e-07
168                      22                      10                5.656854    -0.00288234546835061     0.00569154668623763     0.00451704747766892
169                      22                      10                2.828427   -2.46082882650829e-05    4.63393543737207e-05    6.83590778768563e-05
170                      22                      10                       0   -3.56513065179146e-06    6.31000158647542e-06    1.31652301519537e-05
171                      24                       8                5.656854   -2.33484386470573e-05    3.89557233783329e-05    2.00236910277516e-05
172                      24                       8                2.828427   -1.22256253309331e-05    1.96886591026223e-05    1.93950343472214e-05
173                      24                       8                       0   -9.27781900575211e-08    1.44471735356855e-07    2.07303367661874e-07
174                      26                      10                5.656854   -0.000275354393841371    0.000232874925036978    0.000168340383662104
175                      26                      10                2.828427   -3.94940845783265e-06     3.3133318124771e-06    4.53298508587805e-06
176                      26                      10                       0    -8.7202595133549e-07    7.24656760442147e-07    1.42557240775766e-06
177                      28                       8                5.656854   -1.00436710554777e-06    8.86427423425855e-07    4.33913291846614e-07
178                      28                       8                2.828427   -8.42819735051994e-07    7.40493972937052e-07    6.98812734739369e-07
179                      28                       8                       0   -9.86883651979389e-09    8.62415652126455e-09    1.19749032299512e-08
180                      30                      10                5.656854   -3.12850991383383e-06    1.58304766242914e-06    1.07662238113094e-06
181                      30                      10                2.828427   -8.91325878837628e-08    4.55918705857233e-08    5.93544996805972e-08
182                      30                      10                       0   -3.61766609216432e-08     1.8557502058021e-08    3.53597996853381e-08
183                       0                      12                5.656854    6.79464455835204e-09    6.13408351417035e-08    6.48707041086752e-08
184                       0                      12                2.828427    6.73797476353559e-09     6.8648062206668e-08    1.38060251448484e-07
185                       0                      12                       0    8.96997542945045e-11    1.02415713365427e-09    2.93566577966738e-09
186                       2                      14                5.656854    1.92487350977662e-05    2.71986773661515e-06     6.6674825639057e-06
187                       2                      14                2.828427    4.65333055919847e-07    7.00609256087916e-08    3.12226664579515e-07
188                       2                      14                       0    1.61236400494431e-07    2.55859903783191e-08    1.58075422661117e-07
189                       4                      12                5.656854    2.41586510749013e-05     9.0288578134442e-06    1.07972064412958e-05
190                       4                      12                2.828427    1.32311147537552e-05    5.15876431064121e-06    1.13110309952273e-05
191                       4                      12                       0    1.04190662137607e-07    4.21454070841648e-08    1.29496973046753e-07
192                       6                      14                5.656854     0.00316546942049811    0.000636327498122563     0.00200051525026774
193                       6                      14                2.828427     2.9529128886327e-05    6.80846319477155e-06    3.50707038507146e-05
194                       6                      14                       0    4.51288596707846e-06    1.13825664384757e-06    7.62230201040594e-06
195                       8                      12                5.656854     0.00133003413418637     0.00103380511177216     0.00137290984313126
196                       8                      12                2.828427    0.000288785243357125    0.000221779036150291    0.000527195865651718
197                       8                      12                       0    1.14008184388491e-06    8.62778497114821e-07    2.80682259967196e-06
198                      10                      14                5.656854     -0.0158723371495592    -0.00248967485933719      -0.134611599211757
199                      10                      14                2.828427    0.000181504410791665    0.000107390788631081    0.000632896057605035
200                      10                      14                       0    1.72533246854316e-05    9.98340644768162e-06    7.35519317226651e-05
201                      12                      12                5.656854     0.00177451898172168     0.00540865303104869     0.00765814203050813