ITEM: TIMESTEP
0
ITEM: NUMBER OF ATOMS
422
ITEM: BOX BOUNDS ff ff ff
0.0000000000000000e+00 2.3200000000000000e+02
0.0000000000000000e+00 2.3200000000000000e+02
0.0000000000000000e+00 2.3200000000000000e+02
ITEM: ATOMS id xu yu zu fx fy fz
1        113.156549965416        115.994138587254        108.667471771577        1.47521394885697        1.34785669666719       0.495393733316558
2        118.793968932927         115.95571033449        108.623338092856       0.920142630643647        1.97124169396913       0.266713890999296
3         117.35980891651        115.945259035358        108.614317922593       0.857763932645146        0.58578690754119      0.0258760712865916
4        114.609620381958        116.023500285945        108.695402343009       -4.39553555714506       -4.09237982303611      -0.726464155175009
5        116.661972785005          114.7106224674        108.617751617236        1.49370028097927       0.816721685056918       0.264796373194012
6        115.269986847512        114.743452465357        108.652013856645       -1.72545805730893       -1.58290041047631      -0.278633196606138
7        115.259775219397        117.210455559757         108.64428735437        2.17601885672607        2.94127859576067       0.563841761582694
8         116.65911754926        117.184981954421        108.617381507838        2.44169462725578        1.78282965486834       0.262853335087079
9        114.470250701539        113.500940021957        108.609347780782         4.6321522262651        5.05550989134721        1.02803060100348
10        117.438634693644        113.529482614799        108.634935210913        1.24504746608852       0.688702101981974        0.31114009843458
11         114.55190152585         118.46038362697        108.695891975077       -2.34482844374035       -3.28803806101629      -0.228020859034964
12        117.449236370034        118.417877073558        108.650430259379        0.83291311949131      -0.391531535902762       0.304487621060703
13        113.157498819269        113.592632146931        108.687041559033       -5.97184681917318       -5.66185925474194       -0.89442814531399
14        113.161512387643        118.443618341803        108.695917579529      -0.413826960624893      -0.809461727681673      0.0481320311890828
15        118.861500633108        113.578724700512         108.66738640694       -2.50735103234035       -2.49277400772601      -0.311612162975569
16        118.884345833561        118.448542532645        108.695094062064       -4.30860694982871       -4.62505894816396      -0.454154840729534
17        112.471907085751        117.239431191252        108.701965247612       -1.80674319388375        -2.0780774680602      -0.330394453369082
18        112.423623092313        114.765673848636        108.651248033573        2.70921353193063        2.79735677433884        0.54265057950199
19        119.527367284884        114.759173200464        108.637600088192      -0.439501983367352      -0.723481376217457      -0.193976757886597
20        119.544777336575        117.202056604506        108.657443361546       -1.35216264347291      -0.842777558614924      -0.126404666125902
21        120.908923539431        114.778223602629        108.610642516807        3.87997564250204        4.70555847936023       0.839281176781504
22        120.928331234611        117.133828101936        108.632393872361        1.44062625498663       0.937976262885901       0.210294073428007
23        111.043926346222        114.837759502554        108.680154673061       -1.91393562002033       -2.01989646947606      -0.296509906834528
24        111.044375358317        117.174405317445        108.682947345172       0.795535615111827       0.601308264965806       0.218551409104365
25        121.554846010646        115.960116628024        108.624973549906       -1.56503338826342      -0.333061187855837      -0.393091571358597
26        110.415873408467         116.00993281266        108.686036833996      0.0514923833599157      -0.386506210980289     -0.0492910535644648
27        121.593763008002        118.170489103104        108.641420962178      -0.329810133081073      -0.945405595618354       0.152368120331954
28        121.642030633704        113.826549916699        108.685282347004       -1.53672735621163       -2.55805121395599      -0.079302997014942
29        110.379623167818        118.194433904387         108.67666241709     -0.0514131983896302      0.0406949505628628       0.150315595962813
30        110.370195809665        113.792799736134        108.662828819404       0.776411930836783        1.46959937231316       0.282471630588861
31        112.550287317369        112.565875295219        108.607274495126        1.87659593878179        2.91266863918503       0.559215995024705
32        112.555059881958        119.312439702568        108.618810381358       0.477911569598149        1.18849532845454       0.167471000605916
33        119.355052932337        112.597003134016        108.631593399385       0.360950353486386       0.680544050695264       0.179045398676589
34        119.339858517526        119.323600570772        108.623162310383        1.73283365142818        2.48448748601759       0.109363004323869
35           114.988004158        112.594678149013        108.682571585134      -0.813937521270884        -1.3636843424202      -0.261619153978036
36        114.935076156592         119.38137319405         108.63650504791        1.51085212657769        1.99998332486649     -0.0544024473035415
37        117.013349900955        112.566382886673        108.652211976934     -0.0825272591310293      -0.671833321580715     -0.0454845906836538
38        117.012274752652        119.404930785706        108.657998295121      -0.159116729077996      -0.148856606733932     -0.0601967103659865
39                     100                     100              105.656854       0.212102090123646       0.213951244436791      -0.975667290522355
40                     100                     100              102.828427       0.432079257269848       0.430458608744141   -0.000375029545932668
41                     100                     100                     100       0.212082865287989        0.21341015920937       0.976303512756493
42                     102                     102              105.656854      -0.344393411043502       -0.34755279860946      -0.277994150935898
43                     102                     102              102.828427     -0.0509969285680253     -0.0483493231249191    0.000680568472939953
44                     102                     102                     100      -0.344396422272049       -0.34643906653733       0.276879029519152
45                     104                     100              105.656854      0.0956657811944481       0.960030184013941      -0.808922053058223
46                     104                     100              102.828427     -0.0636505332611399       0.726745663902969   -0.000267581721774011
47                     104                     100                     100      0.0960544639584341       0.959398082985764       0.809345457954782
48                     106                     102              105.656854      -0.148905389436785      -0.514841651754753      -0.381476858153626
49                     106                     102              102.828427       0.142026861621942      0.0664595120873236    0.000352279944327123
50                     106                     102                     100      -0.149968857197341      -0.513685842181651        0.38095768577148
51                     108                     100              105.656854       0.109380312175586        1.05993287238544      -0.801893295522508
52                     108                     100              102.828427      -0.111385775808915       0.640017491422591    0.000279211727672163
53                     108                     100                     100       0.110468035807892        1.05991376441858       0.801382383566482
54                     110                     102              105.656854      -0.142861642192226      -0.581554768642582      -0.373835797035252
55                     110                     102              102.828427       0.147676340738286        0.13453289120078    -0.00102837631896062
56                     110                     102                     100      -0.145333614464859      -0.582405139216406       0.375584782060582
57                     112                     100              105.656854       0.131544032904579        1.10810396417252      -0.810668794281966
58                     112                     100              102.828427      -0.135342469399673       0.589733075497342     0.00121594194994804
59                     112                     100                     100       0.132741127119526        1.10963775908591       0.808614784440778
60                     114                     102              105.656854      -0.163667467595264      -0.618218212420279      -0.361352506756724
61                     114                     102              102.828427       0.168622547234606       0.174352960714874    -0.00275392765368099
62                     114                     102                     100      -0.165187560035943      -0.622353529693703       0.365878080185699
63                     116                     100              105.656854       0.166598471742726        1.14350003373101      -0.821223109740847
64                     116                     100              102.828427      -0.170780233947811       0.552631249400408     0.00173113814416107
65                     116                     100                     100       0.166597625568733        1.14599981087464       0.818333743656138
66                     118                     102              105.656854      -0.209633434052283      -0.650360673658941      -0.347924797054427
67                     118                     102              102.828427       0.214470522225478       0.207559457693281    -0.00276148771146799
68                     118                     102                     100      -0.208121100909318      -0.654527313935951        0.35245279332781
69                     120                     100              105.656854       0.223383935082812        1.18216326299889      -0.835222604875881
70                     120                     100              102.828427      -0.228785241790582       0.513246379217182     0.00121292188211528
71                     120                     100                     100       0.222173644491342        1.18370779347728       0.833181792852461
72                     122                     102              105.656854      -0.289090142586969      -0.687676448566081      -0.330337156085292
73                     122                     102              102.828427       0.293833663569298       0.244056021344393    -0.00102658809746837
74                     122                     102                     100        -0.2865835057554      -0.688553823950477       0.332062026048588
75                     124                     100              105.656854       0.326571200911945         1.2365914924662      -0.852061498326767
76                     124                     100              102.828427      -0.323191203794554       0.459626638919443    0.000262769325236099
77                     124                     100                     100       0.325463228961531        1.23656514308129       0.851588648877642
78                     126                     102              105.656854      -0.461954613562993      -0.727692401778401      -0.332098625757911
79                     126                     102              102.828427       0.397472014834005       0.281665597736836    0.000381770888026701
80                     126                     102                     100      -0.460862217872417      -0.726514373112535       0.331512560426745
81                     128                     100              105.656854       0.708414290358476        1.34073906361154      -0.754686161692536
82                     128                     100              102.828427      -0.281067032761801       0.396081881077994   -0.000295734256555699
83                     128                     100                     100       0.708017247739225        1.34008251774469       0.755165549931085
84                     130                     102              105.656854       -1.34072734287934      -0.708823648076211      -0.755485898291606
85                     130                     102              102.828427      -0.395726028828584       0.281065336445247    0.000721973714308312
86                     130                     102                     100       -1.34072364930377      -0.707671480649057       0.754290241853192
87                     100                     104              105.656854       0.959014568375525       0.100026979913847      -0.808402323455738
88                     100                     104              102.828427       0.727755324470138     -0.0672079359215946    -0.00104532158674151
89                     100                     104                     100       0.958459223770342      0.0987001081783369        0.81013512460075
90                     102                     106              105.656854      -0.513681205785541      -0.157107443925344       -0.38282942786321
91                     102                     106              102.828427      0.0651008516483407       0.148169451286183     0.00216067782334562
92                     102                     106                     100       -0.51234607925295      -0.154094768307696       0.379352707201667
93                     104                     104              105.656854       0.247013454607766       0.252885064053121      -0.388477268062657
94                     104                     104              102.828427      -0.179796330490379      -0.184371308269414    -0.00130763221732897
95                     104                     104                     100       0.247177268536905       0.250407392047373       0.390552130207927
96                     106                     106              105.656854      -0.232767584548745      -0.244999994964835      -0.504736963616787
97                     106                     106              102.828427       0.224930116367009       0.233311410561723     0.00260383925727042
98                     106                     106                     100      -0.233868410706209      -0.239040803848335       0.500578122345513
99                     108                     104              105.656854       0.172627820583866        0.33843077121482      -0.375219192231997
100                     108                     104              102.828427      -0.176762100628374      -0.268559314823374   -0.000207366377386691
101                     108                     104                     100       0.175797091755565       0.336557176969688       0.375462818502137
102                     110                     106              105.656854        -0.1805020075863       -0.29248704015643      -0.489933278416491
103                     110                     106              102.828427       0.191258746261877       0.285154852720164    -0.00134900864719701
104                     110                     106                     100      -0.190366928876086      -0.291501587997756       0.492193692972541
105                     112                     104              105.656854       0.166265389144189       0.378575714203957      -0.390994958467824
106                     112                     104              102.828427      -0.173618935189634      -0.313889821878565     0.00328330136415243
107                     112                     104                     100       0.171412326151842       0.383049643825022       0.385591642461504
108                     114                     106              105.656854      -0.187237080384879      -0.305848557234988       -0.46651641052236
109                     114                     106              102.828427       0.196886675327013       0.310712099973015    -0.00910037245175978
110                     114                     106                     100      -0.194779754044948      -0.321753981311507       0.482027735984318
111                     116                     104              105.656854       0.198133862103211        0.40401990773553      -0.406549387051538
112                     116                     104              102.828427      -0.203362087688264      -0.343293050076407     0.00561229492026406
113                     116                     104                     100       0.198177202742644       0.413405578164524       0.397401757585498
114                     118                     106              105.656854      -0.241751236779921      -0.327681277746691      -0.450544924195834
115                     118                     106              102.828427       0.243794887137426       0.333428725739135    -0.00920436381296974
116                     118                     106                     100      -0.234380887146648      -0.343886834195155       0.466180365934159
117                     120                     104              105.656854       0.261210740283328       0.435048831624936      -0.421710992870481
118                     120                     104              102.828427      -0.265413862671603      -0.372271003295132     0.00332411074720945
119                     120                     104                     100       0.256042230175796       0.439650756653969       0.416281329780895
120                     122                     106              105.656854      -0.320051619079697      -0.362137765009899      -0.438187231475092
121                     122                     106              102.828427       0.320875872987788       0.357213885139072    -0.00144516477426912
122                     122                     106                     100      -0.310017049294392      -0.361409745385215       0.440491283391389
123                     124                     104              105.656854       0.368799437224726       0.463704583071626      -0.438475811526599
124                     124                     104              102.828427      -0.363049650737511       -0.39773549823001   -0.000214697762427728
125                     124                     104                     100        0.36554944132306       0.461857704776286       0.438775313454075
126                     126                     106              105.656854      -0.466724736155206      -0.369400769761973      -0.441789035727411
127                     126                     106              102.828427       0.401610589707309       0.361596707995482     0.00264499723065167
128                     126                     106                     100       -0.46550369475586      -0.363403732602683       0.437493133680371
129                     128                     104              105.656854       0.728251116963202       0.462500443005514      -0.330538942004032
130                     128                     104              102.828427      -0.282889884219349      -0.397133131026245    -0.00136047079673245
131                     128                     104                     100        0.72806287404067       0.459968539909962       0.332726132128616
132                     130                     106              105.656854       -1.23674058613586      -0.328558472794537      -0.853780534611365
133                     130                     106              102.828427      -0.458596070563252       0.324036994273693     0.00224418700199691
134                     130                     106                     100         -1.238085499998      -0.325456394997266       0.850138423315127
135                     100                     108              105.656854        1.06292531177797       0.116676367389313      -0.799907652351489
136                     100                     108              102.828427       0.638315525295036      -0.116928696176951    -0.00247937304095432
137                     100                     108                     100        1.06053755715032       0.114237012098248       0.803939856393241
138                     102                     110              105.656854       -0.58983416762281      -0.155703206527347       -0.37919627080156
139                     102                     110              102.828427       0.138555345590042       0.156357389207682     0.00536104372964929
140                     102                     110                     100      -0.583638125429106      -0.150532106729588       0.370571250760697
141                     104                     108              105.656854       0.338071368677183       0.189623346267283      -0.370992160790701
142                     104                     108              102.828427      -0.266825200366751      -0.187733418895239     -0.0048332408691926
143                     104                     108                     100       0.334559812790755         0.1821379689714       0.378808040680955
144                     106                     110              105.656854      -0.297729583872483      -0.219055755653146      -0.506656463865416
145                     106                     110              102.828427       0.282793818556772       0.210329547381327      0.0112399490244011
146                     106                     110                     100      -0.288222267374155      -0.199335572868781       0.485457661087627
147                     108                     108              105.656854       0.220960714004029        0.25068589132823      -0.358674988435733
148                     108                     108              102.828427      -0.228231850872921      -0.244126923955628    -0.00478468449861954
149                     108                     108                     100       0.227626226674232       0.235675916991351       0.367921418124939
150                     110                     110              105.656854      -0.177630355063987      -0.256411411460569      -0.489715219105215
151                     110                     110              102.828427       0.214973326860854       0.242827750660049     0.00431361748072341
152                     110                     110                     100      -0.221236891080862      -0.232349204712015       0.475618914910485
153                     112                     108              105.656854       0.174595470355891        0.25518674040039      -0.393984767210976
154                     112                     108              102.828427      -0.197375883316221      -0.268669338131421     0.00879993939845066
155                     112                     108                     100       0.200817672911609       0.266957237440209       0.377541417519945
156                     114                     110              105.656854      -0.177698513156315      -0.183510546009953       -0.38414787674185
157                     114                     110              102.828427       0.208247366269003       0.245752251566784     -0.0278552466289248
158                     114                     110                     100      -0.212997995784287      -0.248967882205513       0.470646702643428
159                     116                     108              105.656854       0.219608196249761       0.248472270764226      -0.426153979736525
160                     116                     108              102.828427      -0.225831954805484      -0.280855942353575      0.0199882703506671
161                     116                     108                     100       0.220102931694929       0.285577368184631        0.38821662385052
162                     118                     110              105.656854      -0.283657945784149      -0.191766771520489      -0.364956172706735
163                     118                     110              102.828427       0.266470724800103       0.256553728570766     -0.0286219793888397
164                     118                     110                     100      -0.249529729245203       -0.25986073748645       0.453539455818294
165                     120                     108              105.656854       0.300642113812318       0.287657751962035       -0.42903128308966
166                     120                     108              102.828427      -0.290875088221129      -0.302856709375604     0.00918917131058022
167                     120                     108                     100        0.27427694304719       0.300432538938655        0.41214985868845
168                     122                     110              105.656854      -0.360470795624755      -0.287950921707068      -0.432672819662425
169                     122                     110              102.828427       0.335316888533901       0.276975069521812     0.00360473496223073
170                     122                     110                     100      -0.315769302196233      -0.265822423858673       0.419463911512707
171                     124                     108              105.656854       0.376638673886503        0.32007677188673      -0.430901715901995
172                     124                     108              102.828427      -0.369154570245194      -0.315927444412512    -0.00468471430033966
173                     124                     108                     100       0.369506713231152       0.305311815463611       0.440185002093964
174                     126                     110              105.656854      -0.438409197703529      -0.275386341195075       -0.43570538104979
175                     126                     110              102.828427       0.381294552873851        0.26827893335942      0.0113269256305277
176                     126                     110                     100      -0.447434767437426      -0.255382049557582       0.414097501917544
177                     128                     108              105.656854       0.688601781741586       0.294027906023431       -0.32605457799281
178                     128                     108              102.828427      -0.247105523799114       -0.29542420414864    -0.00494842262304823
179                     128                     108                     100        0.69205603592896       0.286378933618565       0.334138341874204
180                     130                     110              105.656854       -1.17954128543447      -0.228418217072045      -0.839445654520284
181                     130                     110              102.828427      -0.512659310964213       0.231335606182478     0.00554445411543483
182                     130                     110                     100       -1.18584191885965      -0.223045025039567         0.8304581179107
183                     100                     112              105.656854         1.1183478420388       0.138156431395539      -0.806351167704524
184                     100                     112              102.828427       0.583465441284806      -0.140127598880994     -0.0044426979821635
185                     100                     112                     100         1.1126800515815       0.135805480134705       0.813515121972984
186                     102                     114              105.656854      -0.639047693194404       -0.17048969856249      -0.371589489468994
187                     102                     114              102.828427       0.185011542890867       0.173072679339858     0.00871335515052578
188                     102                     114                     100      -0.626518366084622      -0.167731438106444       0.357451039316534
189                     104                     112              105.656854       0.401438998983884       0.187527940931095      -0.374511782097522
190                     104                     112              102.828427      -0.322072407769749      -0.185669996605093      -0.011846970107261
191                     104                     112                     100       0.384746854850553       0.177575882920836       0.395022810520837
192                     106                     114              105.656854      -0.356087635051944      -0.208652788712271      -0.517475395630357
193                     106                     114              102.828427       0.321714279619416       0.207875562434319      0.0232674507140864
194                     106                     114                     100      -0.322319370378985      -0.199713795186319       0.466647841510356
195                     108                     112              105.656854       0.281856132794093       0.257371869179128       -0.30804119004232
196                     108                     112              102.828427      -0.261711824878209      -0.223360410552954     -0.0214923768555012
197                     108                     112                     100       0.260987952708893       0.210970848934104       0.389065351881984
198                     110                     114              105.656854      -0.151877867804833      -0.195848557080828      -0.730498956637198
199                     110                     114              102.828427       0.222989355136772       0.226023881309061      0.0157279564294633
200                     110                     114                     100      -0.239094910891888      -0.220120555834413       0.456869877255138
201                     112                     112              105.656854       0.095517385790959        0.23003993635159      -0.434908442546417