ITEM: TIMESTEP
0
ITEM: NUMBER OF ATOMS
422
ITEM: BOX BOUNDS ff ff ff
0.0000000000000000e+00 2.3200000000000000e+02
0.0000000000000000e+00 2.3200000000000000e+02
0.0000000000000000e+00 2.3200000000000000e+02
ITEM: ATOMS id xu yu zu fx fy fz
1        113.157833972141        115.995422593979        108.668755778302      -0.248601081884373       0.419994639275987     -0.0230110429041811
2        118.789349757529        115.951091159092        108.618718917458        1.51323111509251        2.96986255195276       0.159713647994667
3        117.393042545373        115.978492664221        108.647551551456     -0.0432132707711262        1.57714382224409     -0.0256896161278832
4        114.541185217491        115.955065121478        108.626967178542        1.94438689568208        1.46901171336181      0.0817834852627886
5        116.727259569131        114.775909251526        108.683038401362       -1.73079154562766       -2.33289126639356      -0.140902382261001
6        115.277597746852        114.751063364696        108.659624755984       0.402564444575211       -1.58690062586643     -0.0514452220184187
7        115.264584089576        117.215264429936        108.649096224548      -0.695201245025396       -1.31836527713096     -0.0606230157400991
8         116.68354535601        117.209409761171        108.641809314588       0.282553703224205       0.214651349886432      0.0240594226628325
9        114.490450752238        113.521140072656        108.629547831481        1.70555804987484        2.97483883931498      0.0655567069980188
10        117.428261452613        113.519109373767        108.624561969881        2.64614587381416         2.7175561853941       0.288414086006032
11        114.498279094266        118.406761195386        108.642269543493        2.52944997955831        0.63572187314337      0.0895121266616117
12        117.447294433394        118.415935136918        108.648488322739       0.626201643189299       -2.27887895566215      0.0380553089558324
13        113.112837332359        113.547970660021        108.642380072124       -1.40947454066789     0.00315535220187479     0.00446783621837864
14        113.139449504272        118.421555458433        108.673854696159       -2.11853105114171       -3.01283088479265     -0.0502863446809768
15        118.894674126449        113.611898193853        108.700559900281       -3.61525157089988       -0.46250975452075      -0.192038315554689
16        118.859877871516          118.4240745706         108.67062610002       -1.30574860611563       -1.22196342847461     -0.0118094870680537
17        112.400396222675        117.167920328176        108.630454384536        2.78374995805819        2.06759281777883       0.078377968779155
18        112.459210531876        114.801261288199        108.686835473136      -0.117056679843278       -1.05913346382294     -0.0408303310640079
19        119.576959378855        114.808765294435        108.687192182163       0.693788712647865       0.405738324505419     -0.0251230723320593
20        119.554178878867        117.211458146799        108.666844903839      -0.320658383540061       -2.68715764965899     -0.0936030868140962
21        120.977867436781        114.847167499979        108.679586414157       -1.33456126612507       -1.67192799300246      0.0353215658363818
22         120.98378051854        117.189277385865         108.68784315629       -2.66163106249186       -3.91190655449001     -0.0138188034562573
23        111.059671687441        114.853504843773         108.69590001428       0.696350580689822       -1.01555558041573      0.0154582573373478
24        111.043305078693        117.173335037821        108.681877065548       -3.26054593770658       -5.01773400834725      -0.180809647572343
25        121.578693624512         115.98396424189        108.648821163772      -0.137862097501452        2.92424163185929      0.0187553590980728
26        110.353316667223        115.947376071415        108.623480092751        2.40273439963124         5.0588452146821       0.199105890289582
27        121.610057342809        118.186783437912        108.657715296985        1.44180741095569        2.29644713420804      -0.069360016430232
28        121.624903946355         113.80942322935        108.668155659655      -0.230868890261558       0.370277201657662     0.00407860386180742
29        110.353298164931          118.1681089015        108.650337414204      -0.228926153536014       0.330039815120941     -0.0104640271307858
30         110.39762788419         113.82023181066         108.69026089393       0.394643046306766       0.615932081007332     0.00336146886764903
31        112.553756356797        112.569344334647        108.610743534554       0.708526123935681        1.24021804963186      0.0400931427085069
32        112.555669354999        119.313049175609          108.6194198544      -0.244265339908062       0.373018877265687     -0.0227766311369606
33        119.414091592313        112.656041793993        108.690632059361     -0.0961296941352209       0.176902375053839     0.00183736661503558
34        119.369490654109        119.353232707356        108.652794446967       0.320947186440447       0.585171133723355     -0.0112301321168282
35        114.939768145576        112.546442136589        108.634335572709       0.105522322657142      -0.228908098435734     0.00112440244278393
36        114.995619801151        119.441916838609        108.697048692469       -0.91614078390043        -1.9068382887495      -0.100907510262807
37        116.990653372929        112.543686358646        108.629515448907      -0.156301205003507      -0.348393459192196     0.00176924233496342
38        116.964101787598        119.356757820652        108.609825330067       -0.32640104024671       0.635534305686156     -0.0261172042597684
39                     100                     100              105.656854                       0                       0                       0
40                     100                     100              102.828427                       0                       0                       0
41                     100                     100                     100                       0                       0                       0
42                     102                     102              105.656854                       0                       0                       0
43                     102                     102              102.828427                       0                       0                       0
44                     102                     102                     100                       0                       0                       0
45                     104                     100              105.656854                       0                       0                       0
46                     104                     100              102.828427                       0                       0                       0
47                     104                     100                     100                       0                       0                       0
48                     106                     102              105.656854                       0                       0                       0
49                     106                     102              102.828427                       0                       0                       0
50                     106                     102                     100                       0                       0                       0
51                     108                     100              105.656854                       0                       0                       0
52                     108                     100              102.828427                       0                       0                       0
53                     108                     100                     100                       0                       0                       0
54                     110                     102              105.656854                       0                       0                       0
55                     110                     102              102.828427                       0                       0                       0
56                     110                     102                     100                       0                       0                       0
57                     112                     100              105.656854                       0                       0                       0
58                     112                     100              102.828427                       0                       0                       0
59                     112                     100                     100                       0                       0                       0
60                     114                     102              105.656854                       0                       0                       0
61                     114                     102              102.828427                       0                       0                       0
62                     114                     102                     100                       0                       0                       0
63                     116                     100              105.656854                       0                       0                       0
64                     116                     100              102.828427                       0                       0                       0
65                     116                     100                     100                       0                       0                       0
66                     118                     102              105.656854                       0                       0                       0
67                     118                     102              102.828427                       0                       0                       0
68                     118                     102                     100                       0                       0                       0
69                     120                     100              105.656854                       0                       0                       0
70                     120                     100              102.828427                       0                       0                       0
71                     120                     100                     100                       0                       0                       0
72                     122                     102              105.656854                       0                       0                       0
73                     122                     102              102.828427                       0                       0                       0
74                     122                     102                     100                       0                       0                       0
75                     124                     100              105.656854                       0                       0                       0
76                     124                     100              102.828427                       0                       0                       0
77                     124                     100                     100                       0                       0                       0
78                     126                     102              105.656854                       0                       0                       0
79                     126                     102              102.828427                       0                       0                       0
80                     126                     102                     100                       0                       0                       0
81                     128                     100              105.656854                       0                       0                       0
82                     128                     100              102.828427                       0                       0                       0
83                     128                     100                     100                       0                       0                       0
84                     130                     102              105.656854                       0                       0                       0
85                     130                     102              102.828427                       0                       0                       0
86                     130                     102                     100                       0                       0                       0
87                     100                     104              105.656854                       0                       0                       0
88                     100                     104              102.828427                       0                       0                       0
89                     100                     104                     100                       0                       0                       0
90                     102                     106              105.656854                       0                       0                       0
91                     102                     106              102.828427                       0                       0                       0
92                     102                     106                     100                       0                       0                       0
93                     104                     104              105.656854                       0                       0                       0
94                     104                     104              102.828427                       0                       0                       0
95                     104                     104                     100                       0                       0                       0
96                     106                     106              105.656854                       0                       0                       0
97                     106                     106              102.828427                       0                       0                       0
98                     106                     106                     100                       0                       0                       0
99                     108                     104              105.656854                       0                       0                       0
100                     108                     104              102.828427                       0                       0                       0
101                     108                     104                     100                       0                       0                       0
102                     110                     106              105.656854                       0                       0                       0
103                     110                     106              102.828427                       0                       0                       0
104                     110                     106                     100                       0                       0                       0
105                     112                     104              105.656854                       0                       0                       0
106                     112                     104              102.828427                       0                       0                       0
107                     112                     104                     100                       0                       0                       0
108                     114                     106              105.656854                       0                       0                       0
109                     114                     106              102.828427                       0                       0                       0
110                     114                     106                     100                       0                       0                       0
111                     116                     104              105.656854                       0                       0                       0
112                     116                     104              102.828427                       0                       0                       0
113                     116                     104                     100                       0                       0                       0
114                     118                     106              105.656854                       0                       0                       0
115                     118                     106              102.828427                       0                       0                       0
116                     118                     106                     100                       0                       0                       0
117                     120                     104              105.656854                       0                       0                       0
118                     120                     104              102.828427                       0                       0                       0
119                     120                     104                     100                       0                       0                       0
120                     122                     106              105.656854                       0                       0                       0
121                     122                     106              102.828427                       0                       0                       0
122                     122                     106                     100                       0                       0                       0
123                     124                     104              105.656854                       0                       0                       0
124                     124                     104              102.828427                       0                       0                       0
125                     124                     104                     100                       0                       0                       0
126                     126                     106              105.656854                       0                       0                       0
127                     126                     106              102.828427                       0                       0                       0
128                     126                     106                     100                       0                       0                       0
129                     128                     104              105.656854                       0                       0                       0
130                     128                     104              102.828427                       0                       0                       0
131                     128                     104                     100                       0                       0                       0
132                     130                     106              105.656854                       0                       0                       0
133                     130                     106              102.828427                       0                       0                       0
134                     130                     106                     100                       0                       0                       0
135                     100                     108              105.656854                       0                       0                       0
136                     100                     108              102.828427                       0                       0                       0
137                     100                     108                     100                       0                       0                       0
138                     102                     110              105.656854                       0                       0                       0
139                     102                     110              102.828427                       0                       0                       0
140                     102                     110                     100                       0                       0                       0
141                     104                     108              105.656854                       0                       0                       0
142                     104                     108              102.828427                       0                       0                       0
143                     104                     108                     100                       0                       0                       0
144                     106                     110              105.656854                       0                       0                       0
145                     106                     110              102.828427                       0                       0                       0
146                     106                     110                     100                       0                       0                       0
147                     108                     108              105.656854                       0                       0                       0
148                     108                     108              102.828427                       0                       0                       0
149                     108                     108                     100                       0                       0                       0
150                     110                     110              105.656854                       0                       0                       0
151                     110                     110              102.828427                       0                       0                       0
152                     110                     110                     100                       0                       0                       0
153                     112                     108              105.656854                       0                       0                       0
154                     112                     108              102.828427                       0                       0                       0
155                     112                     108                     100                       0                       0                       0
156                     114                     110              105.656854                       0                       0                       0
157                     114                     110              102.828427                       0                       0                       0
158                     114                     110                     100                       0                       0                       0
159                     116                     108              105.656854                       0                       0                       0
160                     116                     108              102.828427                       0                       0                       0
161                     116                     108                     100                       0                       0                       0
162                     118                     110              105.656854                       0                       0                       0
163                     118                     110              102.828427                       0                       0                       0
164                     118                     110                     100                       0                       0                       0
165                     120                     108              105.656854                       0                       0                       0
166                     120                     108              102.828427                       0                       0                       0
167                     120                     108                     100                       0                       0                       0
168                     122                     110              105.656854                       0                       0                       0
169                     122                     110              102.828427                       0                       0                       0
170                     122                     110                     100                       0                       0                       0
171                     124                     108              105.656854                       0                       0                       0
172                     124                     108              102.828427                       0                       0                       0
173                     124                     108                     100                       0                       0                       0
174                     126                     110              105.656854                       0                       0                       0
175                     126                     110              102.828427                       0                       0                       0
176                     126                     110                     100                       0                       0                       0
177                     128                     108              105.656854                       0                       0                       0
178                     128                     108              102.828427                       0                       0                       0
179                     128                     108                     100                       0                       0                       0
180                     130                     110              105.656854                       0                       0                       0
181                     130                     110              102.828427                       0                       0                       0
182                     130                     110                     100                       0                       0                       0
183                     100                     112              105.656854                       0                       0                       0
184                     100                     112              102.828427                       0                       0                       0
185                     100                     112                     100                       0                       0                       0
186                     102                     114              105.656854                       0                       0                       0
187                     102                     114              102.828427                       0                       0                       0
188                     102                     114                     100                       0                       0                       0
189                     104                     112              105.656854                       0                       0                       0
190                     104                     112              102.828427                       0                       0                       0
191                     104                     112                     100                       0                       0                       0
192                     106                     114              105.656854                       0                       0                       0
193                     106                     114              102.828427                       0                       0                       0
194                     106                     114                     100                       0                       0                       0
195                     108                     112              105.656854                       0                       0                       0
196                     108                     112              102.828427                       0                       0                       0
197                     108                     112                     100                       0                       0                       0
198                     110                     114              105.656854                       0                       0                       0
199                     110                     114              102.828427                       0                       0                       0
200                     110                     114                     100                       0                       0                       0
201                     112                     112              105.656854                       0                       0                       0