ITEM: TIMESTEP
0
ITEM: NUMBER OF ATOMS
422
ITEM: BOX BOUNDS ff ff ff
0.0000000000000000e+00 2.3200000000000000e+02
0.0000000000000000e+00 2.3200000000000000e+02
0.0000000000000000e+00 2.3200000000000000e+02
ITEM: ATOMS id xu yu zu fx fy fz
1        113.170783704167        116.008372326005        108.681705510328       -0.71055472400095      -0.542958412391115      0.0754192136050296
2        118.809646820361        115.971388221924        108.639015980289        3.53467306759839        3.72285192247923      -0.305333479783762
3        117.415873631791        116.001323750639        108.670382637874      -0.229484225987597         1.3374230267178      -0.109212371947046
4        114.566307918703         115.98018782269        108.652089879754        4.59933084526662        4.63032663228347       -0.16037827802907
5        116.723196760739        114.771846443133         108.67897559297       -3.43665771451851       -3.16814409090487       0.225396939311587
6        115.310915240683        114.784380858528        108.692942249816       -1.03962126640399       -4.70840310543168     -0.0059259826332405
7        115.314573029786        117.265253370146        108.699085164758      -0.887943268020324       -1.15554284189553       0.107852405017922
8        116.738796593358        117.264660998519        108.697060551937        -5.1542886136509       -1.03152786974442       0.335811904237681
9        114.521368440562        113.552057760979        108.660465519804        7.27792193459585       -5.29875025719155      0.0106761460157524
10        117.477431955655         113.56827987681        108.673732472924       -5.99330187352459       -7.99853199555538     -0.0327817039057997
11        114.553318445536        118.461800546656        108.697308894763         3.4516216892147        4.24676781301398       0.261655764551238
12         117.47683769698        118.445478400504        108.678031586325       -6.63555960652106         7.0894252561371       0.147365565184963
13         113.15212613986        113.587259467522        108.681668879624       -5.41444101391714        -8.3112423885416      0.0494999196437218
14        113.151315853886        118.433421808047        108.685721045773       -6.31682754281399        6.59517460618152       0.221796667510878
15        118.838325607232        113.555549674636        108.644211381064        8.53041573490266       -5.15952417468552      -0.157267294411303
16        118.838981696053        118.403178395137        108.649729924557        6.92355182807618        7.77365185558998      -0.186211531922043
17         112.47274386032        117.240267965821        108.702802022181       -6.15829339930138       -2.11950943742766       0.185390628963421
18        112.440312463451        114.782363219774        108.667937404711       -3.48755701415753       0.192952955065707     -0.0711335613527955
19        119.567416818894        114.799222734474        108.677649622202        1.81727506775511       -2.49306531987745      0.0109086775989582
20        119.570598704235        117.227877972167        108.683264729207       0.104962177028535       -2.72147832740658      0.0564564579155364
21        120.993640545169        114.862940608367        108.695359522545        6.79647498337791       -12.5467894622448       0.177870816664126
22        120.968908057546        117.174404924871        108.672970695295        7.43593973138831        10.3809958853907      0.0126816238253112
23        110.996244511159         114.79007766749        108.632472837998       -3.45648185554301       -3.42968709445591      -0.283296778296875
24        111.011763428993        117.141793388121        108.650335415848       -5.11421279192702        11.0289181251756       0.103994435484238
25        121.621196832721        116.026467450099        108.691324371981        4.75398171076919        -1.6938933991226       0.131361852276308
26        110.396165596849        115.990225001042        108.666329022378       -4.31175086120032      -0.669168223070727      -0.134698029478943
27        121.622504608771        118.199230703873        108.670162562947        5.43930834833124        6.61106807302944     -0.0689620502605161
28        121.595545108378        113.780064391373        108.638796821678        4.62284412655973        -3.6634591382867     -0.0876339661537733
29        110.396250020542         118.21106075711        108.693289269814       -4.26241397721865        4.05986266197879     -0.0236654322437922
30        110.383969670262        113.806573596731        108.676602680002        -7.4094363828088       -9.60422325765071       0.191750791999667
31        112.610192267074        112.625780244924        108.667179444831        -2.8706836486605       -4.37283277298109      0.0217956106153481
32        112.597979757784        119.355359578394        108.661730257184       -2.80325788578181        5.79007289199143      -0.138216845914603
33        119.417257424236        112.659207625915        108.693797891284        3.00498844523728       -5.48131822416943      0.0822122439345876
34        119.342240489371        119.325982542618        108.625544282229        5.18029848291887        7.71534967744679      -0.292435698462742
35        114.994373318991        112.601047310004        108.688940746124        3.42614443015364       -5.30945877871557      0.0394389286091358
36        114.937974387712        119.384271425171         108.63940327903        6.42965438876897         9.1586411460292      -0.417331986719601
37        117.023595759453        112.576628745171        108.662457835432       -3.93477703895384       -4.86615233103699      0.0273860318333727
38        117.020233409403        119.412889442457        108.665956951872       -3.70184228703128        6.01217837427707    -0.00223763328287632
39                     100                     100              105.656854                       0                       0                       0
40                     100                     100              102.828427                       0                       0                       0
41                     100                     100                     100                       0                       0                       0
42                     102                     102              105.656854                       0                       0                       0
43                     102                     102              102.828427                       0                       0                       0
44                     102                     102                     100                       0                       0                       0
45                     104                     100              105.656854                       0                       0                       0
46                     104                     100              102.828427                       0                       0                       0
47                     104                     100                     100                       0                       0                       0
48                     106                     102              105.656854                       0                       0                       0
49                     106                     102              102.828427                       0                       0                       0
50                     106                     102                     100                       0                       0                       0
51                     108                     100              105.656854                       0                       0                       0
52                     108                     100              102.828427                       0                       0                       0
53                     108                     100                     100                       0                       0                       0
54                     110                     102              105.656854                       0                       0                       0
55                     110                     102              102.828427                       0                       0                       0
56                     110                     102                     100                       0                       0                       0
57                     112                     100              105.656854                       0                       0                       0
58                     112                     100              102.828427                       0                       0                       0
59                     112                     100                     100                       0                       0                       0
60                     114                     102              105.656854                       0                       0                       0
61                     114                     102              102.828427                       0                       0                       0
62                     114                     102                     100                       0                       0                       0
63                     116                     100              105.656854                       0                       0                       0
64                     116                     100              102.828427                       0                       0                       0
65                     116                     100                     100                       0                       0                       0
66                     118                     102              105.656854                       0                       0                       0
67                     118                     102              102.828427                       0                       0                       0
68                     118                     102                     100                       0                       0                       0
69                     120                     100              105.656854                       0                       0                       0
70                     120                     100              102.828427                       0                       0                       0
71                     120                     100                     100                       0                       0                       0
72                     122                     102              105.656854                       0                       0                       0
73                     122                     102              102.828427                       0                       0                       0
74                     122                     102                     100                       0                       0                       0
75                     124                     100              105.656854                       0                       0                       0
76                     124                     100              102.828427                       0                       0                       0
77                     124                     100                     100                       0                       0                       0
78                     126                     102              105.656854                       0                       0                       0
79                     126                     102              102.828427                       0                       0                       0
80                     126                     102                     100                       0                       0                       0
81                     128                     100              105.656854                       0                       0                       0
82                     128                     100              102.828427                       0                       0                       0
83                     128                     100                     100                       0                       0                       0
84                     130                     102              105.656854                       0                       0                       0
85                     130                     102              102.828427                       0                       0                       0
86                     130                     102                     100                       0                       0                       0
87                     100                     104              105.656854                       0                       0                       0
88                     100                     104              102.828427                       0                       0                       0
89                     100                     104                     100                       0                       0                       0
90                     102                     106              105.656854                       0                       0                       0
91                     102                     106              102.828427                       0                       0                       0
92                     102                     106                     100                       0                       0                       0
93                     104                     104              105.656854                       0                       0                       0
94                     104                     104              102.828427                       0                       0                       0
95                     104                     104                     100                       0                       0                       0
96                     106                     106              105.656854                       0                       0                       0
97                     106                     106              102.828427                       0                       0                       0
98                     106                     106                     100                       0                       0                       0
99                     108                     104              105.656854                       0                       0                       0
100                     108                     104              102.828427                       0                       0                       0
101                     108                     104                     100                       0                       0                       0
102                     110                     106              105.656854                       0                       0                       0
103                     110                     106              102.828427                       0                       0                       0
104                     110                     106                     100                       0                       0                       0
105                     112                     104              105.656854                       0                       0                       0
106                     112                     104              102.828427                       0                       0                       0
107                     112                     104                     100                       0                       0                       0
108                     114                     106              105.656854                       0                       0                       0
109                     114                     106              102.828427                       0                       0                       0
110                     114                     106                     100                       0                       0                       0
111                     116                     104              105.656854                       0                       0                       0
112                     116                     104              102.828427                       0                       0                       0
113                     116                     104                     100                       0                       0                       0
114                     118                     106              105.656854                       0                       0                       0
115                     118                     106              102.828427                       0                       0                       0
116                     118                     106                     100                       0                       0                       0
117                     120                     104              105.656854                       0                       0                       0
118                     120                     104              102.828427                       0                       0                       0
119                     120                     104                     100                       0                       0                       0
120                     122                     106              105.656854                       0                       0                       0
121                     122                     106              102.828427                       0                       0                       0
122                     122                     106                     100                       0                       0                       0
123                     124                     104              105.656854                       0                       0                       0
124                     124                     104              102.828427                       0                       0                       0
125                     124                     104                     100                       0                       0                       0
126                     126                     106              105.656854                       0                       0                       0
127                     126                     106              102.828427                       0                       0                       0
128                     126                     106                     100                       0                       0                       0
129                     128                     104              105.656854                       0                       0                       0
130                     128                     104              102.828427                       0                       0                       0
131                     128                     104                     100                       0                       0                       0
132                     130                     106              105.656854                       0                       0                       0
133                     130                     106              102.828427                       0                       0                       0
134                     130                     106                     100                       0                       0                       0
135                     100                     108              105.656854                       0                       0                       0
136                     100                     108              102.828427                       0                       0                       0
137                     100                     108                     100                       0                       0                       0
138                     102                     110              105.656854                       0                       0                       0
139                     102                     110              102.828427                       0                       0                       0
140                     102                     110                     100                       0                       0                       0
141                     104                     108              105.656854                       0                       0                       0
142                     104                     108              102.828427                       0                       0                       0
143                     104                     108                     100                       0                       0                       0
144                     106                     110              105.656854                       0                       0                       0
145                     106                     110              102.828427                       0                       0                       0
146                     106                     110                     100                       0                       0                       0
147                     108                     108              105.656854                       0                       0                       0
148                     108                     108              102.828427                       0                       0                       0
149                     108                     108                     100                       0                       0                       0
150                     110                     110              105.656854                       0                       0                       0
151                     110                     110              102.828427                       0                       0                       0
152                     110                     110                     100                       0                       0                       0
153                     112                     108              105.656854                       0                       0                       0
154                     112                     108              102.828427                       0                       0                       0
155                     112                     108                     100                       0                       0                       0
156                     114                     110              105.656854                       0                       0                       0
157                     114                     110              102.828427                       0                       0                       0
158                     114                     110                     100                       0                       0                       0
159                     116                     108              105.656854                       0                       0                       0
160                     116                     108              102.828427                       0                       0                       0
161                     116                     108                     100                       0                       0                       0
162                     118                     110              105.656854                       0                       0                       0
163                     118                     110              102.828427                       0                       0                       0
164                     118                     110                     100                       0                       0                       0
165                     120                     108              105.656854                       0                       0                       0
166                     120                     108              102.828427                       0                       0                       0
167                     120                     108                     100                       0                       0                       0
168                     122                     110              105.656854                       0                       0                       0
169                     122                     110              102.828427                       0                       0                       0
170                     122                     110                     100                       0                       0                       0
171                     124                     108              105.656854                       0                       0                       0
172                     124                     108              102.828427                       0                       0                       0
173                     124                     108                     100                       0                       0                       0
174                     126                     110              105.656854                       0                       0                       0
175                     126                     110              102.828427                       0                       0                       0
176                     126                     110                     100                       0                       0                       0
177                     128                     108              105.656854                       0                       0                       0
178                     128                     108              102.828427                       0                       0                       0
179                     128                     108                     100                       0                       0                       0
180                     130                     110              105.656854                       0                       0                       0
181                     130                     110              102.828427                       0                       0                       0
182                     130                     110                     100                       0                       0                       0
183                     100                     112              105.656854                       0                       0                       0
184                     100                     112              102.828427                       0                       0                       0
185                     100                     112                     100                       0                       0                       0
186                     102                     114              105.656854                       0                       0                       0
187                     102                     114              102.828427                       0                       0                       0
188                     102                     114                     100                       0                       0                       0
189                     104                     112              105.656854                       0                       0                       0
190                     104                     112              102.828427                       0                       0                       0
191                     104                     112                     100                       0                       0                       0
192                     106                     114              105.656854                       0                       0                       0
193                     106                     114              102.828427                       0                       0                       0
194                     106                     114                     100                       0                       0                       0
195                     108                     112              105.656854                       0                       0                       0
196                     108                     112              102.828427                       0                       0                       0
197                     108                     112                     100                       0                       0                       0
198                     110                     114              105.656854                       0                       0                       0
199                     110                     114              102.828427                       0                       0                       0
200                     110                     114                     100                       0                       0                       0
201                     112                     112              105.656854                       0                       0                       0