ITEM: TIMESTEP
0
ITEM: NUMBER OF ATOMS
422
ITEM: BOX BOUNDS ff ff ff
0.0000000000000000e+00 2.3200000000000000e+02
0.0000000000000000e+00 2.3200000000000000e+02
0.0000000000000000e+00 2.3200000000000000e+02
ITEM: ATOMS id xu yu zu fx fy fz
1        113.145932193839        115.983520815677              108.756854    -0.00227072849618093   -0.000923282800832356      -0.001667193388108
2        118.827484840071        115.989226241634              108.756854   -0.000492007454085813    -0.00102367161792051   -0.000934662558106777
3        117.402344993917        115.987795112765              108.756854    0.000606596110626273     0.00319975998665711     0.00312687550257376
4        114.571072038949        115.984951942936              108.756854     0.00520454999168923     0.00333242414459423     0.00375341630348081
5        116.701075167769        114.749724850164              108.756854     -0.0108678566581306       0.012584271599081      0.0220764759020435
6        115.274826990867        114.748292608712              108.756854      0.0189641973211519      0.0129737539779815      0.0236861910240483
7        115.272341865028        117.223022205388              108.756854      0.0185074769154168    -0.00535261673616871      0.0224891339750266
8        116.698590041422        117.224454446583              108.756854     -0.0104965473684313    -0.00493786887959372      0.0207441987858468
9        114.517756920757        113.548446241175              108.756854      0.0207334960182624     -0.0284352565187942       0.107221775651506
10        117.460553482731        113.551401403886              108.756854     -0.0397451598045906     -0.0281153178176039       0.106681407892699
11        114.512863550773        118.421345651893              108.756854      0.0209794719596658     0.00880853029123903       0.111553924371446
12        117.455660110655        118.424300814179              108.756854     -0.0397343363258807     0.00890216484228827       0.109709330891054
13        113.127311260236        113.562444587898              108.756854     -0.0169976403537855     -0.0240077358438085      0.0729199926077224
14        113.122448808114        118.404554762274              108.756854     -0.0175573484519856     0.00731150113770328      0.0755963031789394
15        118.850968226168        113.568192293572              108.756854     0.00114379386246471      -0.024242513119848      0.0772331840925194
16        118.846105771496         118.41030247058              108.756854      0.0019400357606261     0.00842527633006832      0.0802986360624332
17        112.426795838139         117.19431994364              108.756854    -0.00446997687066343     0.00412210652466477     0.00906337498368684
18         112.42922905874        114.771279815063              108.756854    -0.00492263705544721     0.00535613310306202      0.0102261079910543
19        119.546621196692        114.778427112272              108.756854       0.015210344153218     0.00554213258975958     0.00953101243049822
20        119.544187975028         117.20146724296              108.756854      0.0148428887128332     0.00349708641944205     0.00879728138494745
21        120.955135022624        114.824435085822              108.756854       0.133311802513762       0.123622752874876      0.0135496829275176
22        120.952791362251        117.158288229576              108.756854       0.131287002998826     -0.0231910966775482     0.00895125104281232
23        111.020625673161        114.814458829493              108.756854     -0.0154669390982302       0.125347174939673      0.0374451162515541
24        111.018282013145        117.148311972274              108.756854      -0.014895029766794     -0.0188612387211915       0.032520432105884
25        121.586726460739        115.991997078118              108.756854     -0.0547881810604793     -0.0261977000055856    0.000353250155259695
26        110.386690574472        115.980749978664              108.756854     -0.0110273802681914     -0.0275586216623388     -0.0138565883543777
27        121.609196045824        118.185922140926              108.756854      -0.165947103728302     -0.0483629541032692        0.14792489629472
28          121.6136022867        113.798121569695              108.756854      -0.172032939274511     -0.0750363578103136       0.137170981893773
29        110.359814750727        118.174625487296              108.756854      0.0193251875929948     -0.0581529950020198       0.117455244825655
30         110.36422099026         113.78682491673              108.756854      0.0226257572415512     -0.0754355424866966       0.104472757783173
31        112.599866822243        112.615454800093              108.756854     -0.0177539790757354      0.0245323684386023     0.00976389302150057
32        112.593103500599        119.350483321209              108.756854     -0.0173259851129069      0.0174476800769666     0.00363797247299953
33        119.380313532952        112.622263734631              108.756854      0.0600365397025537      0.0252319217360712     0.00360823301228171
34        119.373550207142        119.357292260389              108.756854      0.0578073996933025      0.0154992614551366    -0.00226726840505451
35        114.962286572867         112.56896056388              108.756854     0.00578653207983676      0.0139248188864559    -0.00225919766005985
36        114.955425108682        119.401722146141              108.756854     0.00558625373477262      0.0136541750060734    -0.00629623339985201
37        117.017991924022        112.571024909739              108.756854      0.0208333052891257      0.0140835063269745    -0.00314688362558711
38        117.011130457531        119.403786490585              108.756854      0.0199895182177375      0.0131796606864683    -0.00697131197306087
39                     100                     100              105.656854       0.212166841211633       0.214003277523256      -0.975672697032175
40                     100                     100              102.828427       0.432015758707003       0.430411437654087   -0.000382323513057015
41                     100                     100                     100       0.212141307608115       0.213451513857211       0.976320440126928
42                     102                     102              105.656854      -0.344487743838333      -0.347623423882738      -0.277992868060711
43                     102                     102              102.828427     -0.0509062023079938     -0.0482891494698129    0.000696741840857413
44                     102                     102                     100      -0.344477601636674      -0.346489963007762       0.276850690602505
45                     104                     100              105.656854      0.0957477455768135       0.960120847570331      -0.808931066556493
46                     104                     100              102.828427     -0.0637322048211123       0.726663476497191   -0.000280627345890966
47                     104                     100                     100      0.0961280348952176       0.959468703160234       0.809374336575019
48                     106                     102              105.656854      -0.149033018944123      -0.514978454090549      -0.381470402577984
49                     106                     102              102.828427        0.14215218952057      0.0665772185426061     0.00038143023093392
50                     106                     102                     100      -0.150076291949604      -0.513782262527472       0.380906158992509
51                     108                     100              105.656854       0.109470434854178        1.06008809546173      -0.801913541960291
52                     108                     100              102.828427       -0.11147820430561       0.639874047533868     0.00025839626871753
53                     108                     100                     100       0.110548626446494         1.0600335580255       0.801430352113957
54                     110                     102              105.656854      -0.143001237109036      -0.581815604121463      -0.373806354642467
55                     110                     102              102.828427       0.147817396936286       0.134764191970297   -0.000978196805012556
56                     110                     102                     100      -0.145447303009888      -0.582583788787688       0.375492989748405
57                     112                     100              105.656854       0.131609301685832        1.10834129672262        -0.8107085250476
58                     112                     100              102.828427      -0.135411306591594       0.589508607353158     0.00118636369786863
59                     112                     100                     100       0.132798208989344        1.10981943261661       0.808686434189843
60                     114                     102              105.656854      -0.163745243325522      -0.618621975978966      -0.361290485904916
61                     114                     102              102.828427       0.168699131652184        0.17471829556373    -0.00267952025608142
62                     114                     102                     100      -0.165242282727599      -0.622622044487981       0.365741730176811
63                     116                     100              105.656854       0.166589022502935        1.14379386707698      -0.821276697261093
64                     116                     100              102.828427      -0.170772177660665       0.552353187773122     0.00169583706692823
65                     116                     100                     100       0.166587646091179        1.14621898768551       0.818419864030582
66                     118                     102              105.656854       -0.20955409897258      -0.650822327894842      -0.347858213597413
67                     118                     102              102.828427       0.214391375001782       0.207965397541339    -0.00267692302180797
68                     118                     102                     100      -0.208052281141922      -0.654815147019913       0.352305231738575
69                     120                     100              105.656854       0.223269928567492        1.18242517187249      -0.835276260564913
70                     120                     100              102.828427      -0.228676923085664       0.513000703643795     0.00118536562788648
71                     120                     100                     100       0.222082095898558        1.18390008119834       0.833255798323144
72                     122                     102              105.656854      -0.288850881455427      -0.687986841118106      -0.330277425190659
73                     122                     102              102.828427       0.293616249750742       0.244329394406101   -0.000977166913828661
74                     122                     102                     100      -0.286412679067645      -0.688751208640905       0.331962290422332
75                     124                     100              105.656854       0.326406588760593        1.23673043991026      -0.852111712404124
76                     124                     100              102.828427      -0.323035647005796       0.459490102950214    0.000259691644946633
77                     124                     100                     100        0.32533225852284        1.23667746747472       0.851626474342763
78                     126                     102              105.656854      -0.461727000863079      -0.727774765904264      -0.332038738812554
79                     126                     102              102.828427       0.397260635662946       0.281752263671133    0.000376581281270554
80                     126                     102                     100      -0.460688907073865      -0.726587083876687       0.331482165676026
81                     128                     100              105.656854       0.708282300187192        1.34076613661466      -0.754731253374991
82                     128                     100              102.828427      -0.280938035744157       0.396045505486806   -0.000277278478238615
83                     128                     100                     100       0.707903227511434        1.34011896599246        0.75516906589765
84                     130                     102              105.656854       -1.34059818457463      -0.708794617331673      -0.755433663906977
85                     130                     102              102.828427      -0.395855378079682       0.281052717490702    0.000690746052965351
86                     130                     102                     100       -1.34060707646153      -0.707669701430235       0.754301200670229
87                     100                     104              105.656854       0.959110223411061       0.100073875914748      -0.808397165609139
88                     100                     104              102.828427       0.727666496332124      -0.067244730303734    -0.00106242477729428
89                     100                     104                     100       0.958538769039734       0.098730662382251       0.810160397859802
90                     102                     106              105.656854       -0.51381718810144      -0.157154911546764      -0.382855546851543
91                     102                     106              102.828427      0.0652223954561428        0.14819857785477     0.00219140798383046
92                     102                     106                     100      -0.512454200106645      -0.154120672046416       0.379315813201426
93                     104                     104              105.656854       0.247159100149681       0.252978715565461      -0.388465317606615
94                     104                     104              102.828427      -0.179932680685834      -0.184443416532817    -0.00134018323022454
95                     104                     104                     100        0.24729471550454       0.250467466042425       0.390598873816763
96                     106                     106              105.656854      -0.233016324479985      -0.245102858464358      -0.504787638574723
97                     106                     106              102.828427       0.225153568353639       0.233379913467003     0.00266265439837928
98                     106                     106                     100      -0.234048970458312       -0.23910662365675       0.500502174985996
99                     108                     104              105.656854        0.17284958753563       0.338655660240994      -0.375215441223137
100                     108                     104              102.828427       -0.17697230859956      -0.268737948854603   -0.000273342168322543
101                     108                     104                     100       0.175961835879866       0.336693625840339       0.375559242495508
102                     110                     106              105.656854      -0.180956735078988      -0.292949259115271      -0.489979837538913
103                     110                     106              102.828427       0.191646480631707       0.285462214446217    -0.00118011049587843
104                     110                     106                     100      -0.190625952634276      -0.291705964203027       0.491998290536777
105                     112                     104              105.656854        0.16648890443496       0.379069546621219      -0.391041919499646
106                     112                     104              102.828427      -0.173835518393215      -0.314295682001111      0.0031545379222398
107                     112                     104                     100       0.171566143424966         0.3833249832054       0.385776362282941
108                     114                     106              105.656854      -0.187585181629975      -0.306907510159691      -0.466457684551992
109                     114                     106              102.828427       0.197184461468469       0.311454726121247    -0.00874981112354029
110                     114                     106                     100      -0.194951896607567      -0.322169752360023       0.481650340360151
111                     116                     104              105.656854       0.198201545900458       0.404759375430069      -0.406629965690815
112                     116                     104              102.828427      -0.203404653408495       -0.34389735411661     0.00542214512733119
113                     116                     104                     100       0.198190257065691       0.413788798963352       0.397659334699548
114                     118                     106              105.656854      -0.241661481221869      -0.329161802326817      -0.450573043162332
115                     118                     106              102.828427        0.24365121820769       0.334371556185586    -0.00873029066194226
116                     118                     106                     100      -0.234256218793069      -0.344367936989595       0.465729163216374
117                     120                     104              105.656854       0.260924074246176       0.435748762991654      -0.421760629181011
118                     120                     104              102.828427      -0.265157836653922       -0.37280799570176     0.00314580786710385
119                     120                     104                     100       0.255853099851585       0.439980125534536        0.41650970545388
120                     122                     106              105.656854      -0.319258755502516      -0.362945462179846      -0.438209616226399
121                     122                     106              102.828427       0.320286836819875       0.357726401584309    -0.00117119775939873
122                     122                     106                     100      -0.309646100895478      -0.361680155152441       0.440213331614638
123                     124                     104              105.656854       0.368380291054446        0.46395376448524      -0.438540612039437
124                     124                     104              102.828427      -0.362691832392245      -0.397945571455921   -0.000268909556146295
125                     124                     104                     100       0.365286991758246       0.462001454526763       0.438877204821894
126                     126                     106              105.656854      -0.466213189993517      -0.369378933241907      -0.441692032296804
127                     126                     106              102.828427       0.401181222614384       0.361610625197349     0.00264176137806622
128                     126                     106                     100       -0.46519227555215      -0.363428154747622       0.437442366712154
129                     128                     104              105.656854       0.728011179596697       0.462466117792057      -0.330613801969363
130                     128                     104              102.828427      -0.282663920083974      -0.397124844616474    -0.00132881164095248
131                     128                     104                     100       0.727875478927146       0.459974247335127       0.332729270367647
132                     130                     106              105.656854       -1.23657887552697      -0.328404635207037      -0.853687605876141
133                     130                     106              102.828427      -0.458766923018863       0.323932500814967      0.0021736227190205
134                     130                     106                     100       -1.23792944041645      -0.325395101177086        0.85017622850669
135                     100                     108              105.656854        1.06304048189152        0.11669449987557      -0.799877820235515
136                     100                     108              102.828427       0.638217362344352      -0.116933545387101    -0.00250653854728304
137                     100                     108                     100        1.06062734468732       0.114241291832842       0.803967903907273
138                     102                     110              105.656854      -0.589946216478631      -0.155679111730893      -0.379278803679774
139                     102                     110              102.828427       0.138652286951904       0.156321937437194     0.00538978808915667
140                     102                     110                     100      -0.583746714943373      -0.150514237313411       0.370546210456632
141                     104                     108              105.656854       0.338246870372944       0.189615154814855      -0.370911289295442
142                     104                     108              102.828427      -0.266985608829667      -0.187714266637725    -0.00486966081317767
143                     104                     108                     100       0.334711196848187       0.182144655406138       0.378851929798579
144                     106                     110              105.656854      -0.297777499606842      -0.218646002519854      -0.506796881523018
145                     106                     110              102.828427        0.28299632295984       0.210150393285432      0.0111732889805508
146                     106                     110                     100      -0.288454882547445      -0.199306147765491       0.485428505712518
147                     108                     108              105.656854       0.221507202442192       0.250650519988319      -0.358524342251484
148                     108                     108              102.828427      -0.228667172712542      -0.244142733596065    -0.00487357024999083
149                     108                     108                     100       0.227926093960062       0.235745911179759        0.36805022643724
150                     110                     110              105.656854      -0.180286632127835       -0.25602209668701        -0.4904363605139
151                     110                     110              102.828427       0.215994540681602       0.242773967150276     0.00448311424503911
152                     110                     110                     100      -0.221743043276703       -0.23244760857997       0.475345216361932
153                     112                     108              105.656854       0.175520468571263       0.256536459353623       -0.39366177559981
154                     112                     108              102.828427       -0.19807711546591      -0.269296593074328     0.00827402978649352
155                     112                     108                     100       0.201194597519461       0.267270225678413       0.377963061525335
156                     114                     110              105.656854      -0.178698585722234      -0.187950232197124      -0.386350117701005
157                     114                     110              102.828427       0.209193168079042       0.246776089798616     -0.0264802263414075
158                     114                     110                     100      -0.213407919005237      -0.249376533251001       0.469787582453211
159                     116                     108              105.656854       0.220270811312454       0.250843137232053      -0.425955323357392
160                     116                     108              102.828427      -0.226116770538813      -0.282136219583768      0.0190180668110581
161                     116                     108                     100       0.220189164380265       0.286121200816711       0.388935832728348
162                     118                     110              105.656854      -0.284336256211523      -0.199215428365325      -0.369325293766635
163                     118                     110              102.828427       0.266240293868947       0.258135420907282     -0.0263758500163652
164                     118                     110                     100      -0.249292250079918      -0.260349495365158       0.452406556751081
165                     120                     108              105.656854       0.299479915329666       0.290309712766881      -0.428354522246834
166                     120                     108              102.828427      -0.290119204697237      -0.303993551787352     0.00821281792300032
167                     120                     108                     100       0.273860380986621       0.300866002682703       0.412789451277615
168                     122                     110              105.656854      -0.355934642007482      -0.289685923851892      -0.434090483968233
169                     122                     110              102.828427        0.33357844351125       0.277371194251907     0.00453498337304948
170                     122                     110                     100      -0.315009674675759       -0.26594584479726       0.418904091979444
171                     124                     108              105.656854       0.375319141029617        0.32018840501691      -0.430926766208531
172                     124                     108              102.828427      -0.368272377240123       -0.31603290410981    -0.00484848822530866
173                     124                     108                     100        0.36899167444159       0.305377365055919       0.440378557272212
174                     126                     110              105.656854      -0.437704494858462      -0.274390378199141      -0.435286632757471
175                     126                     110              102.828427       0.380634959558515       0.267854422076253       0.011090561459334
176                     126                     110                     100      -0.446973024805503      -0.255216729746234       0.414131385233044
177                     128                     108              105.656854        0.68828711046846       0.293683293734452       -0.32622130568085
178                     128                     108              102.828427      -0.246788790564438      -0.295220990752399    -0.00482985157561243
179                     128                     108                     100       0.691792903973177        0.28627780880341       0.334093322559203
180                     130                     110              105.656854       -1.17955582349791      -0.228011481757334      -0.839244075853235
181                     130                     110              102.828427      -0.512755696325508       0.231064421374751     0.00534596733295816
182                     130                     110                     100       -1.18569889992002      -0.222888523624313       0.830583984483447
183                     100                     112              105.656854        1.11844768634296       0.138137246073138      -0.806288324363929
184                     100                     112              102.828427       0.583390546913607      -0.140099325617409    -0.00447240820688724
185                     100                     112                     100         1.1127598911702       0.135782295211495       0.813535569355519
186                     102                     114              105.656854       -0.63907578323999      -0.170446598612542      -0.371727654168492
187                     102                     114              102.828427       0.185041495890607        0.17302082964891     0.00872370006367361
188                     102                     114                     100      -0.626603406313144      -0.167689865869069        0.35745034525433
189                     104                     112              105.656854       0.401314055724739       0.187370226468781      -0.374346336338711
190                     104                     112              102.828427      -0.322102384024732      -0.185558107479322     -0.0117934178572024
191                     104                     112                     100       0.384883828329675       0.177527530619443       0.395013037187186
192                     106                     114              105.656854       -0.35483699786869      -0.208560291954692      -0.517338952106413
193                     106                     114              102.828427       0.321669736831291       0.207766184247248      0.0228500679642834
194                     106                     114                     100      -0.322549009312227      -0.199652746677528       0.466720235037915
195                     108                     112              105.656854       0.280018093033488       0.254501620472543      -0.310077567323567
196                     108                     112              102.828427      -0.262193411100044       -0.22299412469405     -0.0209249358384737
197                     108                     112                     100       0.261404393261403       0.210924998845692       0.389084011443799
198                     110                     114              105.656854      -0.147470275387954      -0.195048014324284      -0.676989264979098
199                     110                     114              102.828427       0.224663510299117       0.226088496457604      0.0149762764774171
200                     110                     114                     100      -0.239798403896865      -0.220101318885053       0.456619743193619
201                     112                     112              105.656854       0.102673599213253       0.228960558826878        -0.4280420803511