ITEM: TIMESTEP
0
ITEM: NUMBER OF ATOMS
422
ITEM: BOX BOUNDS pp pp pp
0.0000000000000000e+00 3.2000000000000000e+01
0.0000000000000000e+00 3.2000000000000000e+01
0.0000000000000000e+00 3.2000000000000000e+01
ITEM: ATOMS id xu yu zu fx fy fz
1        13.1459321938386        17.1835208156773                 8.65685     -0.0274324064115096      -0.026235548129496      0.0759695755757214
2        18.8274848400711        17.1892262416344                 8.65685      0.0275059195950007     -0.0269544619861315      0.0790694898324812
3         17.402344993917         17.187795112765                 8.65685     -0.0243921655977472     -0.0331353111009501       0.100281516520443
4         14.571072038949        17.1849519429358                 8.65685      0.0236967929929617     -0.0338079713650327        0.10221513221588
5        16.7010751677692        15.9497248501637                 8.65685    -0.00438335231160557    0.000889158675693116    0.000304590205923133
6        15.2748269908674        15.9482926087119                 8.65685     0.00452249032385702    0.000953170074057354    0.000645221429412013
7        15.2723418650276        18.4230222053877                 8.65685      0.0308010474649437      0.0106647145132157      0.0565492346774694
8        16.6985900414216        18.4244544465825                 8.65685     -0.0298608437935626      0.0102245522626842      0.0534308885591208
9        14.5177569207574        14.7484462411751                 8.65685       0.023787888403674      0.0343946351074622       0.114832493387774
10        17.4605534827313        14.7514014038861                 8.65685     -0.0243630966835652      0.0339407602393009        0.11260726938567
11        14.5128635507729         19.621345651893                 8.65685     0.00703716613485015      0.0165527185148056      0.0250106825287295
12        17.4556601106552        19.6243008141789                 8.65685    -0.00727031503811549      0.0160904436450959      0.0240826350300663
13        13.1273112602358        14.7624445878976                 8.65685     -0.0289779799672044      0.0253430007642051      0.0790246612991304
14        13.1224488081137        19.6045547622743                 8.65685    -0.00874777357158755      0.0124984350868947      0.0158085733612106
15         18.850968226168        14.7681922935721                 8.65685        0.02877927057266      0.0259976088615117      0.0807124472089313
16        18.8461057714963        19.6103024705805                 8.65685     0.00867491602413912      0.0127631030440466      0.0164782958106337
17         12.426795838139        18.3943199436399                 8.65685      -0.019813377316947     0.00626204464364697      0.0307082873396262
18        12.4292290587396        15.9712798150634                 8.65685    -0.00268052414910678    0.000305433418570032    -0.00270408600038879
19        19.5466211966922        15.9784271122721                 8.65685     0.00283049189773311    0.000240425364364831    -0.00250848052754042
20        19.5441879750283        18.4014672429596                 8.65685      0.0209822403344594     0.00664771062905895      0.0325838148265057
21        20.9551350226241        16.0244350858224                 8.65685    -0.00555504639851558   -0.000642102790692438     0.00428322726955528
22        20.9527913622507        18.3582882295758                 8.65685     -0.0372319557730866      0.0128403173633368      0.0862965346998161
23        11.0206256731611        16.0144588294926                 8.65685     0.00562712925727554   -0.000392668091365959     0.00470216554490752
24        11.0182820131454        18.3483119722736                 8.65685      0.0378105391220418      0.0130125895656193      0.0905868562679022
25        21.5867264607395        17.1919970781177                 8.65685    -0.00778325539292638     -0.0153076204303744      0.0400809253366192
26        10.3866905744716        17.1807499786644                 8.65685     0.00729429130292684     -0.0155519498941597      0.0401843074289271
27         21.609196045824        19.3859221409264                 8.65685    -0.00327267836730122      0.0111472095427744      0.0106921763105212
28        21.6136022867001        14.9981215696947                 8.65685    -0.00589137860583275      0.0153284393728546      0.0299343651927328
29        10.3598147507275        19.3746254872963                 8.65685     0.00312078220079036      0.0114909624145869      0.0115206355453195
30        10.3642209902605        14.9868249167297                 8.65685      0.0056959906443329      0.0155478594390325      0.0310518986522332
31        12.5998668222426        13.8154548000933                 8.65685    -0.00305501092181805   -0.000355638586067295    -0.00451979002590967
32        12.5931035005993        20.5504833212092                 8.65685    -0.00045019697570404   -0.000481753980180084    -0.00941671802680831
33        19.3803135329519        13.8222637346313                 8.65685     0.00315003649740079   -0.000359286593412379    -0.00425453839931722
34        19.3735502071424         20.557292260389                 8.65685    0.000491130242682992    -0.00054549276346171    -0.00930689313475672
35        14.9622865728669        13.7689605638796                 8.65685      0.0043947961309019    -0.00100429248933573     0.00230883880533431
36         14.955425108682        20.6017221461408                 8.65685    0.000912131447284979     -0.0015339114480485    -0.00750490624019394
37        17.0179919240215        13.7710249097393                 8.65685    -0.00437028022886466   -0.000967170945800425     0.00195931788974225
38         17.011130457531        20.6037864905846                 8.65685   -0.000899951856371872    -0.00145527200449557    -0.00764577822252096
39                       0                       0                5.656854                       0                       0                       0
40                       0                       0                2.828427                       0                       0                       0
41                       0                       0                       0                       0                       0                       0
42                       2                       2                5.656854                       0                       0                       0
43                       2                       2                2.828427                       0                       0                       0
44                       2                       2                       0                       0                       0                       0
45                       4                       0                5.656854    1.88114895120067e-10   -3.29619883213456e-10    8.05058770405137e-11
46                       4                       0                2.828427                       0                       0                       0
47                       4                       0                       0                       0                       0                       0
48                       6                       2                5.656854    2.52162698698154e-09    5.60436686436582e-09    1.33900100881869e-09
49                       6                       2                2.828427    8.52836751340651e-11    2.02263212862925e-10    9.42363625451274e-11
50                       6                       2                       0                       0                       0                       0
51                       8                       0                5.656854    2.40323950413542e-09   -6.64581274313387e-09    1.66180528366524e-09
52                       8                       0                2.828427    2.45283702058376e-09   -7.02738954960569e-09    3.39909883658883e-09
53                       8                       0                       0                       0                       0                       0
54                      10                       2                5.656854    1.28335547854315e-08    5.02097547963344e-08     1.3408304380493e-08
55                      10                       2                2.828427     5.0154549354706e-10    1.91459282029449e-09    9.67487782323192e-10
56                      10                       2                       0    7.78093246080075e-11    3.53615250622209e-10    2.59083906133237e-10
57                      12                       0                5.656854    4.36950547659967e-09   -2.86731431630717e-08    7.34999405617012e-09
58                      12                       0                2.828427    4.88322014474601e-09   -3.51308916076938e-08    1.70124127427456e-08
59                      12                       0                       0    3.04806985242901e-11   -2.25248473651027e-10    1.70615992397775e-10
60                      14                       2                5.656854    8.39772706911424e-09    1.21566472311325e-07    3.40336777961637e-08
61                      14                       2                2.828427    3.45494112170948e-10    4.59198961796602e-09    2.41887130189977e-09
62                      14                       2                       0    7.19293097848581e-11    1.29389890291612e-09    9.50386093076786e-10
63                      16                       0                5.656854    5.18877247333121e-12    -4.2790852433302e-08    1.10579923969509e-08
64                      16                       0                2.828427    2.53565889816738e-10    -5.1020879377621e-08    2.55071492489946e-08
65                      16                       0                       0   -9.53227320964992e-14   -4.23438624253981e-10    3.21145160831885e-10
66                      18                       2                5.656854   -8.60600948085882e-09    1.20824305315757e-07    3.38565276697305e-08
67                      18                       2                2.828427   -3.53057590829654e-10    4.56712026904572e-09    2.40694997615359e-09
68                      18                       2                       0   -7.38852755448193e-11    1.28804247830096e-09     9.4587061005662e-10
69                      20                       0                5.656854   -4.38706929067918e-09   -2.86637942253287e-08    7.34689502404365e-09
70                      20                       0                2.828427    -4.9141466168665e-09   -3.51368048303928e-08    1.70175348660072e-08
71                      20                       0                       0   -3.09924191961037e-11   -2.25266276786435e-10    1.70700164100328e-10
72                      22                       2                5.656854    -1.2732393563314e-08     4.9361139967883e-08    1.31994402752178e-08
73                      22                       2                2.828427   -4.97912138031157e-10    1.88539332780535e-09    9.53291619397857e-10
74                      22                       2                       0     -7.731847345296e-11    3.48927017113606e-10    2.55501730963044e-10
75                      24                       0                5.656854   -2.39860500707046e-09   -6.60851983759368e-09     1.6524004648768e-09
76                      24                       0                2.828427   -2.45208275172169e-09   -6.99119279502455e-09    3.38269353823056e-09
77                      24                       0                       0                       0                       0                       0
78                      26                       2                5.656854   -2.46819041605804e-09    5.46654459620282e-09    1.30523702017876e-09
79                      26                       2                2.828427   -8.35928932563102e-11    1.97530814796568e-10    9.19684707157565e-11
80                      26                       2                       0                       0                       0                       0
81                      28                       0                5.656854   -1.86747116278496e-10   -3.25941398140536e-10    7.96465391087469e-11
82                      28                       0                2.828427                       0                       0                       0
83                      28                       0                       0                       0                       0                       0
84                      30                       2                5.656854                       0                       0                       0
85                      30                       2                2.828427                       0                       0                       0
86                      30                       2                       0                       0                       0                       0
87                       0                       4                5.656854                       0                       0                       0
88                       0                       4                2.828427                       0                       0                       0
89                       0                       4                       0                       0                       0                       0
90                       2                       6                5.656854    2.73574322264165e-08    2.82234373210652e-08    9.22058629113849e-09
91                       2                       6                2.828427    9.38704515134936e-10    9.76185369273936e-10    6.26405607118059e-10
92                       2                       6                       0                       0                       0                       0
93                       4                       4                5.656854    2.43697287117958e-09     3.6971908600527e-09    1.00835068849837e-09
94                       4                       4                2.828427    2.10317221685657e-09    3.25448663650581e-09    1.77296017577142e-09
95                       4                       4                       0                       0                       0                       0
96                       6                       6                5.656854    7.31377654506497e-07    1.20333840445313e-06    4.01243804779687e-07
97                       6                       6                2.828427    2.33816531480549e-08    3.80760512065789e-08    2.45844692972743e-08
98                       6                       6                       0    1.07834722067352e-08    1.73580618468253e-08    1.66427199857275e-08
99                       8                       4                5.656854    2.44270511522397e-08    6.23320118928799e-08    1.74397799989701e-08
100                       8                       4                2.828427     2.7760544653175e-08    7.10722124828853e-08    3.85958661895129e-08
101                       8                       4                       0    3.35491230881665e-10     8.5305439578968e-10    7.05199539360948e-10
102                      10                       6                5.656854    4.14369617704573e-06    1.34876599176124e-05    4.69113775166722e-06
103                      10                       6                2.828427    1.06978315467925e-07    3.43269909730338e-07    2.29412403868513e-07
104                      10                       6                       0     3.9619482319695e-08    1.24991405157285e-07    1.22936297449484e-07
105                      12                       4                5.656854    4.63804385039983e-08    2.94995275657981e-07    8.45931797795663e-08
106                      12                       4                2.828427    4.91838969974723e-08    3.07004680352136e-07     1.7006249104467e-07
107                      12                       4                       0    6.07593273322323e-10    4.17919810404524e-09    3.44581087252067e-09
108                      14                       6                5.656854    2.43104459927653e-06    3.65378703726788e-05      1.303509698377e-05
109                      14                       6                2.828427    6.18411615547102e-08    8.47189121837988e-07    5.79632220155733e-07
110                      14                       6                       0    2.29931159590415e-08     2.8320694947191e-07    2.84092482415334e-07
111                      16                       4                5.656854   -4.43180141520571e-10    4.40658086176023e-07    1.27390284080289e-07
112                      16                       4                2.828427   -4.54479545033771e-10    4.51833865867321e-07    2.52108990522024e-07
113                      16                       4                       0   -6.01723712227488e-12    5.97768661926353e-09    4.97781482180463e-09
114                      18                       6                5.656854   -2.49622858619448e-06    3.63200206539804e-05    1.29528225758047e-05
115                      18                       6                2.828427   -6.33694023954237e-08    8.42776464807676e-07    5.76426839023816e-07
116                      18                       6                       0   -2.35111714206647e-08    2.81946956148819e-07    2.82745658043441e-07
117                      20                       4                5.656854   -4.64329350532467e-08    2.91603161427472e-07     8.3583218508938e-08
118                      20                       4                2.828427   -4.92803625301858e-08    3.03807619666495e-07    1.68219826971552e-07
119                      20                       4                       0   -6.10300998471715e-10    4.14110086513114e-09    3.41285060633892e-09
120                      22                       6                5.656854    -4.0974353930813e-06    1.32422680601959e-05    4.60219370458275e-06
121                      22                       6                2.828427   -1.06019264466526e-07    3.37780361413056e-07    2.25578639189277e-07
122                      22                       6                       0     -3.934980953391e-08    1.23278437793473e-07    1.21167761183109e-07
123                      24                       4                5.656854   -2.40097281242076e-08     6.0967550998803e-08    1.70467819235143e-08
124                      24                       4                2.828427   -2.73353827644104e-08    6.96440119758471e-08    3.77956015293353e-08
125                      24                       4                       0   -3.31105780598416e-10    8.37962609776664e-10    6.92236442891528e-10
126                      26                       6                5.656854   -7.13353262015076e-07     1.1696334289308e-06     3.8964416142974e-07
127                      26                       6                2.828427   -2.28666803572782e-08    3.71121125017598e-08    2.39406507104806e-08
128                      26                       6                       0    -1.0578776503849e-08    1.69729531553846e-08    1.62591642385241e-08
129                      28                       4                5.656854   -2.32326142074142e-09    3.54528443396553e-09    9.64711922106948e-10
130                      28                       4                2.828427   -2.05006252181503e-09    3.16447966927876e-09    1.72241848205289e-09
131                      28                       4                       0                       0                       0                       0
132                      30                       6                5.656854    -2.6479477677799e-08    2.72718359643574e-08    8.90069560753885e-09
133                      30                       6                2.828427     -9.107026005811e-10    9.45575758074376e-10    6.06109852359005e-10
134                      30                       6                       0                       0                       0                       0
135                       0                       8                5.656854    1.31516965784592e-10    5.04614683467321e-09    2.06481348483238e-09
136                       0                       8                2.828427    1.41439552226857e-10    5.81776682382223e-09    4.67448219620278e-09
137                       0                       8                       0                       0                       0                       0
138                       2                      10                5.656854      1.336854127955e-06    8.43240497743498e-07    4.61810747598302e-07
139                       2                      10                2.828427    4.12671675582429e-08    2.61216354184723e-08    2.74542014242852e-08
140                       2                      10                       0    1.74038540604385e-08    1.07074392986736e-08    1.70013354217167e-08
141                       4                       8                5.656854    2.94225881383815e-07     3.0567032864114e-07    1.26704882563932e-07
142                       4                       8                2.828427    2.81588604103121e-07    2.90743758382171e-07    2.32381544198489e-07
143                       4                       8                       0    3.53936510383613e-09    3.64253748093992e-09    4.33748292162719e-09
144                       6                      10                5.656854    8.46151472109589e-05    8.95242118943031e-05    5.11605163513493e-05
145                       6                      10                2.828427    1.49269309132303e-06    1.55350991730556e-06    1.69326067719657e-06
146                       6                      10                       0    3.92138586199664e-07    4.01754180916696e-07    6.36372026948996e-07
147                       8                       8                5.656854      5.243873509835e-06    9.92187165386597e-06    4.29280399307631e-06
148                       8                       8                2.828427    3.47707448637276e-06    6.42193526202893e-06    5.32916692555223e-06
149                       8                       8                       0    3.25090725302335e-08    5.85912737642396e-08      7.115533422103e-08
150                      10                      10                5.656854    0.000782096153561753     0.00181744324294441     0.00112802812022906
151                      10                      10                2.828427    8.65354372481028e-06    1.93999073682104e-05    2.25627855721506e-05
152                      10                      10                       0    1.55461952924625e-06    3.33023695675871e-06    5.54550440079015e-06
153                      12                       8                5.656854    1.28175106419844e-05    6.55013739880786e-05    3.01750537653274e-05
154                      12                       8                2.828427    6.66986795206283e-06    3.25205337343774e-05     2.8392776921784e-05
155                      12                       8                       0    5.12578055306467e-08    2.36533012487116e-07    2.98728194803194e-07
156                      14                      10                5.656854    0.000340040612575884     0.00545789273799643     0.00364363383346467
157                      14                      10                2.828427    3.92518865068986e-06     4.8375665960734e-05    5.97391324747545e-05
158                      14                      10                       0    7.38018974323865e-07    7.24403191913138e-06    1.26321565999201e-05
159                      16                       8                5.656854   -1.07416072637877e-07    9.75329741971596e-05    4.57375154885508e-05
160                      16                       8                2.828427   -5.32547326669115e-08     4.6983146049421e-05    4.17303137999884e-05
161                      16                       8                       0   -3.88263304077262e-10    3.32225632893291e-07    4.26111684378188e-07
162                      18                      10                5.656854   -0.000353335762612775      0.0054302615610534     0.00362231589987872
163                      18                      10                2.828427   -4.04236397734154e-06    4.81744777138747e-05    5.94498238440813e-05
164                      18                      10                       0   -7.55612392275592e-07    7.21927000663819e-06    1.25817313238252e-05
165                      20                       8                5.656854   -1.28228782236266e-05    6.46670356881414e-05    2.97641169621002e-05
166                      20                       8                2.828427   -6.68282274976479e-06      3.217922638334e-05    2.80723295526503e-05
167                      20                       8                       0   -5.14163936080954e-08    2.34493853049474e-07     2.9594245715333e-07
168                      22                      10                5.656854    -0.00077211355855816     0.00178177808271416      0.0011039558862372
169                      22                      10                2.828427   -8.57697548436399e-06    1.90968513784264e-05    2.21772374790368e-05
170                      22                      10                       0   -1.54536725861331e-06    3.28869488809028e-06    5.46941206507321e-06
171                      24                       8                5.656854   -5.13624378547459e-06    9.67124874389493e-06    4.17925498117806e-06
172                      24                       8                2.828427   -3.41789525085257e-06    6.28329868812692e-06    5.20826359681081e-06
173                      24                       8                       0   -3.20645668170274e-08    5.75306527072843e-08    6.97955118752643e-08
174                      26                      10                5.656854   -8.21642357813162e-05    8.66754588702712e-05    4.94440463370117e-05
175                      26                      10                2.828427    -1.4571041768965e-06    1.51211451951741e-06     1.6455121755796e-06
176                      26                      10                       0   -3.83748148052103e-07    3.92431629316617e-07    6.20785663686014e-07
177                      28                       8                5.656854   -2.85079523543277e-07    2.95520787641131e-07    1.22342844913114e-07
178                      28                       8                2.828427   -2.73799182582335e-07    2.82084857720635e-07    2.25192319146283e-07
179                      28                       8                       0   -3.45515213187366e-09    3.54846750695117e-09    4.22033746848093e-09
180                      30                      10                5.656854   -1.28865023399575e-06    8.12293911967391e-07    4.44323015976863e-07
181                      30                      10                2.828427   -3.99539521681456e-08     2.5273221022563e-08    2.65239741772384e-08
182                      30                      10                       0   -1.69300461381165e-08    1.04052352750251e-08    1.64948487755734e-08
183                       0                      12                5.656854    2.50261262534013e-09    4.79074924864474e-08    3.75391141442687e-08
184                       0                      12                2.828427    2.57196034924488e-09    5.43523272748153e-08    8.18143633279325e-08
185                       0                      12                       0    2.96231097135988e-11    6.95404490768167e-10    1.62787023124988e-09
186                       2                      14                5.656854    1.37281042206192e-05    3.31414387282439e-06     4.7582053397215e-06
187                       2                      14                2.828427     3.4044988340917e-07    8.58713888687547e-08    2.28212045934487e-07
188                       2                      14                       0    1.21033059941424e-07    3.13725160163158e-08    1.18552034617577e-07
189                       4                      12                5.656854    1.14123500220948e-05    6.03162262504237e-06    5.08119398023497e-06
190                       4                      12                2.828427    6.95398900649317e-06    3.74052320733982e-06    5.90736656860789e-06
191                       4                      12                       0    6.06063818207654e-08    3.31225776641425e-08    7.48083173198802e-08
192                       6                      14                5.656854     0.00206372174443477    0.000775003572849849     0.00130264942926911
193                       6                      14                2.828427    2.04098361876243e-05     8.1967934469959e-06     2.4114542821499e-05
194                       6                      14                       0    3.31554454797797e-06    1.39276838080127e-06    5.56431459952549e-06
195                       8                      12                5.656854    0.000503902711170304     0.00055254128362237    0.000502359223433353
196                       8                      12                2.828427    0.000136360839180831    0.000143128982463099    0.000240525580217805
197                       8                      12                       0    6.36888600005269e-07    6.45594576945912e-07    1.53197957315941e-06
198                      10                      14                5.656854     0.00692438753248929    -0.00641698246126171     -0.0293829095341074
199                      10                      14                2.828427    0.000126531774548316     0.00012963683823764    0.000424001451065047
200                      10                      14                       0     1.2808793516394e-05    1.23276396372659e-05    5.33739129493941e-05
201                      12                      12                5.656854     0.00121554182378153     0.00400268277463494      0.0042241268213393