ITEM: TIMESTEP
0
ITEM: NUMBER OF ATOMS
422
ITEM: BOX BOUNDS ff ff ff
0.0000000000000000e+00 2.3200000000000000e+02
0.0000000000000000e+00 2.3200000000000000e+02
0.0000000000000000e+00 2.3200000000000000e+02
ITEM: ATOMS id xu yu zu fx fy fz
1        112.345932193839        115.983520815677              108.656854    0.000113689681158332    -0.00116095175101975    -0.00532628449049569
2        118.027484840071        115.989226241634              108.656854    -0.00519171535135788   -0.000734519769683803      0.0191313961123289
3        116.602344993917        115.987795112765              108.656854    0.000990380139420083     0.00304003212909842     0.00224634811005162
4        113.771072038949        115.984951942936              108.656854     0.00113644806423702     0.00364630246779935      0.0180949750033107
5        115.901075167769        114.749724850164              108.656854     0.00670288139157273      0.0082615404526466        0.01214122239253
6        114.474826990867        114.748292608712              108.656854       0.024604375891481      0.0375188518489555       0.115219934063946
7        114.472341865028        117.223022205388              108.656854      0.0239129620468049     -0.0301093847121774       0.111516870308002
8        115.898590041422        117.224454446583              108.656854     0.00663981800635954   -0.000529858740163688      0.0113914260324403
9        113.717756920757        113.548446241175              108.656854     -0.0256143070449237     -0.0403000294575894       0.179242734946312
10        116.660553482731        113.551401403886              108.656854     -0.0480492778993263     -0.0211248240012157      0.0505659950293634
11        113.712863550773        118.421345651893              108.656854     -0.0262942799076085      0.0198824667095647       0.184002000827674
12        116.655660110655        118.424300814179              108.656854     -0.0478845862237471     0.00198427360318638      0.0527843311686347
13        112.327311260236        113.562444587898              108.656854    -0.00423845234240375     -0.0173666554679154      0.0220674772937235
14        112.322448808114        118.404554762274              108.656854    -0.00442822038252581     0.00107764390983587      0.0240984461457181
15        118.050968226168        113.568192293572              108.656854     -0.0255316378744265     -0.0414212607702386       0.191115424907768
16        118.046105771496         118.41030247058              108.656854     -0.0254328321138641      0.0246590446802038         0.1950422799264
17        111.626795838139         117.19431994364              108.656854      0.0148386020227559     0.00272054546955472      0.0190679181701737
18         111.62922905874        114.771279815063              108.656854      0.0151451704511361     0.00669863360726508      0.0201958896306543
19        118.746621196692        114.778427112272              108.656854      0.0303904477221375      0.0273095855731717      0.0868491298957118
20        118.744187975028         117.20146724296              108.656854      0.0296565934700543     -0.0182836003120876      0.0846813358571436
21        120.155135022624        114.824435085822              108.656854       0.119681045238491       0.110359488691867      0.0265296661616184
22        120.152791362251        117.158288229576              108.656854       0.117637147383912    -0.00781932735352347      0.0226251889986102
23        110.220625673161        114.814458829493              108.656854   -0.000628126210201945       0.144091222428923      0.0858232673469691
24        110.218282013145        117.148311972274              108.656854    0.000578610155805532     -0.0380656976640602      0.0780258996326646
25         120.78672646074        115.991997078118              108.656854     -0.0639378729025609     -0.0267911651133905     -0.0286662737737037
26        109.586690574472        115.980749978664              108.656854     -0.0388765884319794     -0.0271933671486653     -0.0124068784481352
27        120.809196045824        118.185922140926              108.656854      -0.193992494676755     -0.0494707072970229      0.0797610756060036
28          120.8136022867        113.798121569695              108.656854      -0.199865265880619     -0.0767394753272269      0.0692272512519375
29        109.559814750727        118.174625487296              108.656854     -0.0585666420113641     -0.0547666526198282        0.14547393009681
30         109.56422099026         113.78682491673              108.656854     -0.0543271700351931     -0.0788515143468486       0.133115221510937
31        111.799866822243        112.615454800093              108.656854     -0.0325977745772758      0.0265627422578164      0.0181895655281667
32        111.793103500599        119.350483321209              108.656854     -0.0318420733093131      0.0153702779145946      0.0118720134340441
33        118.580313532952        112.622263734631              108.656854      0.0588534539321779      0.0250122977979586    -0.00744555196765384
34        118.573550207142        119.357292260389              108.656854      0.0571343485421276      0.0164062996387319     -0.0132030497748557
35        114.162286572867         112.56896056388              108.656854       0.011753251042671      0.0130051558220595    -0.00659198980288648
36        114.155425108682        119.401722146141              108.656854      0.0118186477987313      0.0147702819566289     -0.0103544399307976
37        116.217991924022        112.571024909739              108.656854      0.0157247040288178      0.0161826277776675     0.00654649343547217
38        116.211130457531        119.403786490585              108.656854      0.0150126230647871      0.0113065550381717     0.00256626337943998
39                     100                     100              105.656854       0.211997786988312       0.214043291829265        -0.9756742559194
40                     100                     100              102.828427       0.432164540879786        0.43039053020225   -0.000381412599172469
41                     100                     100                     100       0.212020414878503       0.213452316848953       0.976313088946692
42                     102                     102              105.656854      -0.344150356818114      -0.347692015167411      -0.277989900986936
43                     102                     102              102.828427     -0.0511884969912625     -0.0482671901901481    0.000689755361498858
44                     102                     102                     100      -0.344265373827821      -0.346472974431239       0.276875716560046
45                     104                     100              105.656854      0.0954646176957617       0.959969830260762      -0.808973195901927
46                     104                     100              102.828427     -0.0635061665915095       0.726797083444481   -0.000216059680647949
47                     104                     100                     100      0.0959686401224023       0.959358308668183       0.809299707900991
48                     106                     102              105.656854      -0.148483890599497      -0.514568987772943      -0.381348557397232
49                     106                     102              102.828427        0.14175688786769      0.0662514599182797    0.000206774469886426
50                     106                     102                     100      -0.149834862580015      -0.513548268271691       0.381084279018136
51                     108                     100              105.656854       0.109307139899422        1.05957362746468      -0.802024619810602
52                     108                     100              102.828427      -0.111366707682267       0.640265743349801    0.000423900840527498
53                     108                     100                     100       0.110491054267007        1.05976869055165       0.801265411853353
54                     110                     102              105.656854      -0.142973798578514      -0.580697471973018       -0.37353160641763
55                     110                     102              102.828427       0.147833953772187       0.134004922618954    -0.00134831031925856
56                     110                     102                     100      -0.145498794453434      -0.582138090317681       0.375813363070588
57                     112                     100              105.656854       0.131970265152337        1.10777049464593      -0.810810426381213
58                     112                     100              102.828427      -0.135698686504649       0.589927846687881     0.00134814921837472
59                     112                     100                     100       0.133009891227867        1.10955385452322       0.808530653119828
60                     114                     102              105.656854      -0.164801728180859      -0.617981755151837      -0.361185904834216
61                     114                     102              102.828427       0.169466294915542       0.174275990934025    -0.00286174322633676
62                     114                     102                     100      -0.165741371257008      -0.622368122051101       0.365905919356782
63                     116                     100              105.656854       0.167256991255391        1.14383499351474      -0.821229873521256
64                     116                     100              102.828427      -0.171293266308384       0.552344842019337     0.00166529114962124
65                     116                     100                     100       0.166952873390949        1.14621362039381       0.818433482347656
66                     118                     102              105.656854      -0.210490685359727      -0.651567118704047      -0.348117810966062
67                     118                     102              102.828427       0.215103417858942       0.208411475980204    -0.00241004042139278
68                     118                     102                     100      -0.208532364825921      -0.655044352689583       0.352112239622766
69                     120                     100              105.656854       0.223544979573454        1.18300435903565      -0.835121635653717
70                     120                     100              102.828427      -0.228921498813095       0.512597305883529    0.000993294804080781
71                     120                     100                     100       0.222277979169114         1.1841447526342        0.83342244926709
72                     122                     102              105.656854      -0.288696188151956      -0.688995008821436      -0.330562807685464
73                     122                     102              102.828427       0.293580924768659       0.245015739877853   -0.000616521679022303
74                     122                     102                     100      -0.286451676087313      -0.689155100543131       0.331655454821492
75                     124                     100              105.656854       0.326209043904843        1.23717796071295      -0.852007251513866
76                     124                     100              102.828427      -0.322912395443178       0.459141844312299    0.000106050464725701
77                     124                     100                     100       0.325275367466224        1.23691708743041       0.851780730262348
78                     126                     102              105.656854      -0.461213768469004      -0.728083162224878      -0.332110814871558
79                     126                     102              102.828427       0.396897259145934       0.282029293619564    0.000510880751852027
80                     126                     102                     100      -0.460471954535444      -0.726800235825457       0.331328141098113
81                     128                     100              105.656854       0.708022198932687        1.34087885829572      -0.754711473412901
82                     128                     100              102.828427      -0.280732549077286       0.395930789877452    -0.00032323859930183
83                     128                     100                     100       0.707760323088098        1.34022148674314       0.755231821350274
84                     130                     102              105.656854       -1.34031221944634      -0.708720926157492      -0.755402683879661
85                     130                     102              102.828427      -0.396100562966151       0.281039577297717    0.000677057259595269
86                     130                     102                     100       -1.34042046724148      -0.707697113480292       0.754285431458957
87                     100                     104              105.656854       0.958894883967723       0.100375317228707      -0.808337195786929
88                     100                     104              102.828427       0.727879591848291     -0.0674350948139005    -0.00114563393479302
89                     100                     104                     100       0.958349827381105      0.0988189517270444       0.810215636384368
90                     102                     106              105.656854      -0.513384502074115      -0.157863159565589       -0.38305283062674
91                     102                     106              102.828427      0.0647825214668503       0.148561758194364     0.00240098231764154
92                     102                     106                     100      -0.512090432501282      -0.154241752048647       0.379220594898663
93                     104                     104              105.656854       0.246403636285742       0.253088934367183       -0.38847687142065
94                     104                     104              102.828427      -0.179355080785303      -0.184433794129571    -0.00130028533013122
95                     104                     104                     100       0.246912192667412       0.250391672973181       0.390513142151485
96                     106                     106              105.656854      -0.231037867624623       -0.24517159767424      -0.504694730132426
97                     106                     106              102.828427        0.22388964340586       0.233173158105767     0.00244044954707288
98                     106                     106                     100      -0.233372667617466      -0.238860028572573       0.500796107970901
99                     108                     104              105.656854       0.171790512388139       0.337420360007428      -0.375632424539987
100                     108                     104              102.828427      -0.176335889592542      -0.267915093959881    0.000240774849513076
101                     108                     104                     100       0.175657300233178       0.336210694840586       0.375128477007774
102                     110                     106              105.656854      -0.179473702786132      -0.288970468004168      -0.488343124447807
103                     110                     106              102.828427        0.19102997409345       0.283491130488128    -0.00270231082708105
104                     110                     106                     100      -0.190479687278951      -0.290821443319709       0.492968173876816
105                     112                     104              105.656854       0.167356629337451       0.376872992714205       -0.39166814431011
106                     112                     104              102.828427      -0.174450700021907      -0.313013134818536     0.00389541267487873
107                     112                     104                     100       0.171974751627862       0.382692191106892       0.385237611339694
108                     114                     106              105.656854      -0.191436120933111      -0.304027000104091      -0.465552938622486
109                     114                     106              102.828427       0.199415827991312       0.310023330925172    -0.00974131177694716
110                     114                     106                     100      -0.196120908135506      -0.321576489292503       0.482259865153636
111                     116                     104              105.656854       0.200504430288081        0.40489391749857      -0.406440154572247
112                     116                     104              102.828427      -0.204939335025446      -0.343906270241327     0.00533550762268655
113                     116                     104                     100       0.199088055953294       0.413771023729171       0.397683065081736
114                     118                     106              105.656854      -0.245024950660616      -0.332292481081793       -0.45213337738397
115                     118                     106              102.828427       0.245713432982656        0.33574571137069    -0.00754448480887398
116                     118                     106                     100      -0.235381508018338      -0.344894075485278       0.465095174736129
117                     120                     104              105.656854       0.261435117001606       0.437880668553891      -0.420998724173772
118                     120                     104              102.828427      -0.265637551566538      -0.374005327210925     0.00236831825908329
119                     120                     104                     100       0.256225327626212       0.440555897088522        0.41704367805661
120                     122                     106              105.656854      -0.317395708480091      -0.366184860538661      -0.439551963418434
121                     122                     106              102.828427       0.319578841968379       0.359449583526552    0.000161556194635203
122                     122                     106                     100       -0.30949732257292      -0.362480435206336       0.439328770551476
123                     124                     104              105.656854       0.367330694479572        0.46490288173968      -0.438248632173853
124                     124                     104              102.828427      -0.362081883390062      -0.398645970890334   -0.000689243608479562
125                     124                     104                     100       0.365008411548742       0.462436812940593       0.439258618453325
126                     126                     106              105.656854      -0.464613898306623      -0.369190516901693      -0.441551823537366
127                     126                     106              102.828427       0.400105653921344       0.361801355958939      0.0027480997663589
128                     126                     106                     100      -0.464605906365526      -0.363674722318344       0.437195544281389
129                     128                     104              105.656854       0.727385472664401       0.462334438648432      -0.330681199508171
130                     128                     104              102.828427      -0.282168963646294      -0.397143820712921    -0.00132487724338889
131                     128                     104                     100       0.727542528841227       0.460061287768726       0.332796248559721
132                     130                     106              105.656854        -1.2362460304623       -0.32784542306155      -0.853434113343512
133                     130                     106              102.828427      -0.459141073715242       0.323675612338202     0.00196382833776387
134                     130                     106                     100       -1.23761076909788      -0.325330499338549       0.850257500972066
135                     100                     108              105.656854        1.06319460489984       0.117546958093307      -0.799545581723279
136                     100                     108              102.828427       0.638303266994729      -0.117431801634822    -0.00290175313261945
137                     100                     108                     100        1.06042636792037       0.114464165651806       0.804224259030173
138                     102                     110              105.656854      -0.590715532958229      -0.157612266433488      -0.380475972092467
139                     102                     110              102.828427       0.138461430074422       0.157190822979472     0.00643691384088639
140                     102                     110                     100       -0.58329941619884      -0.150797022945826       0.370067962279854
141                     104                     108              105.656854       0.337253003774265       0.191534581880916      -0.370114533449385
142                     104                     108              102.828427      -0.265943809250143      -0.188378566073187    -0.00541135173390071
143                     104                     108                     100       0.333976855084962       0.182255448599498       0.378962080178082
144                     106                     110              105.656854      -0.294366153816555      -0.224288302961576      -0.510764008391679
145                     106                     110              102.828427       0.280140332337856       0.211005273771026      0.0123268040611908
146                     106                     110                     100      -0.287014152687557      -0.199227271848509       0.485589630916436
147                     108                     108              105.656854       0.215341279046878       0.249499965004768      -0.359558210347874
148                     108                     108              102.828427      -0.225952916916621      -0.243029422258452    -0.00362307626282703
149                     108                     108                     100       0.226906604094827        0.23510115252813       0.367108431571963
150                     110                     110              105.656854      -0.162762431104516      -0.239698615446878      -0.474537888266448
151                     110                     110              102.828427       0.212332389646652       0.239273443690093    -0.00105702854486909
152                     110                     110                     100      -0.220953066894771      -0.231272650596696        0.47774067105443
153                     112                     108              105.656854       0.177884130083994       0.246498228621477      -0.399151056755623
154                     112                     108              102.828427      -0.199256916465955      -0.265748973506317      0.0119285230304429
155                     112                     108                     100       0.201894733131482       0.266072698782164       0.376247585636686
156                     114                     110              105.656854      -0.194648677348105      -0.176424175268753      -0.377303058370907
157                     114                     110              102.828427       0.215178517658951       0.243884729446146     -0.0309256369019616
158                     114                     110                     100      -0.215801036703648      -0.248504604170851       0.471551722883157
159                     116                     108              105.656854       0.229450869535717       0.250864549410417      -0.425197840538216
160                     116                     108              102.828427      -0.230782067688334      -0.282047556635048       0.018879322997245
161                     116                     108                     100       0.222298975909281        0.28607762177599       0.388950945742557
162                     118                     110              105.656854      -0.301842999496333       -0.20840166659566      -0.379450595072538
163                     118                     110              102.828427        0.27208558007723       0.260891068095504     -0.0217222654563602
164                     118                     110                     100      -0.251633921781168      -0.261124269109275       0.450691309925856
165                     120                     108              105.656854       0.299954370771446       0.299887813226267      -0.422643194546455
166                     120                     108              102.828427      -0.290909963572293      -0.307278656520299     0.00470114805788595
167                     120                     108                     100       0.274498447987808       0.301964789403397       0.414418624653385
168                     122                     110              105.656854      -0.338360360494414      -0.299970740510579      -0.442727168509751
169                     122                     110              102.828427       0.329866190301064       0.280516700747188     0.00910373145995857
170                     122                     110                     100      -0.314271882509374      -0.267038391216321       0.416738374822868
171                     124                     108              105.656854       0.370310514842696       0.320525426391918      -0.430922066913305
172                     124                     108              102.828427       -0.36590651885544      -0.316978923942722    -0.00570606223776132
173                     124                     108                     100       0.368094492681982        0.30598309145774       0.441196562984563
174                     126                     110              105.656854      -0.435579224753612       -0.27059174630546      -0.431780591190882
175                     126                     110              102.828427       0.378342859997474       0.267372373824831      0.0101246546990314
176                     126                     110                     100      -0.445749997535857      -0.255366197185165       0.413950240346879
177                     128                     108              105.656854       0.687571625543072       0.292275082045035      -0.327062754836139
178                     128                     108              102.828427      -0.245927175452696       -0.29478504585634    -0.00434059112857536
179                     128                     108                     100       0.691162108960892       0.286248310486491       0.334016081196556
180                     130                     110              105.656854       -1.18005853038918      -0.226677095223078      -0.838184143074062
181                     130                     110              102.828427      -0.512991140128315       0.230485082625196     0.00451427025069029
182                     130                     110                     100       -1.18528649727401      -0.222718188315751       0.830939677540297
183                     100                     112              105.656854        1.11977157284599       0.139126624739169      -0.805369479490978
184                     100                     112              102.828427       0.583016387568359       -0.14064057745919    -0.00545023988155208
185                     100                     112                     100        1.11264915819303       0.136010768113882       0.814119922807889
186                     102                     114              105.656854      -0.642193998121348      -0.171538742314782      -0.374464762044579
187                     102                     114              102.828427       0.185431429843338       0.173506293227532      0.0108791015989918
188                     102                     114                     100      -0.626167781206487      -0.167847177453775       0.356526991425842
189                     104                     112              105.656854       0.404444925087914       0.191359520361834      -0.369178137319129
190                     104                     112              102.828427      -0.321207134967462      -0.186671142185395     -0.0143893396737343
191                     104                     112                     100       0.383828748524853       0.177743752848201       0.395682501688767
192                     106                     114              105.656854       -0.35463300441066       -0.20854436673161      -0.534634051322755
193                     106                     114              102.828427       0.317353344823795       0.208020855876947      0.0268983748205708
194                     106                     114                     100      -0.320386414025561      -0.199620911072035       0.466577166276719
195                     108                     112              105.656854       0.259581559174226       0.268351756720261      -0.285261044671712
196                     108                     112              102.828427      -0.254637350497118      -0.222195465242183     -0.0199558127029731
197                     108                     112                     100       0.259210713061576       0.210410532927817       0.387608923098268
198                     110                     114              105.656854     -0.0756000842214479      -0.201557505476337      -0.756155002760339
199                     110                     114              102.828427       0.217299601738549       0.223883953477508     0.00372210946871706
200                     110                     114                     100      -0.238342516712564      -0.219504277444767       0.460531559684447
201                     112                     112              105.656854       0.124005661946073       0.208810957888252      -0.479794091705847