ITEM: TIMESTEP
0
ITEM: NUMBER OF ATOMS
422
ITEM: BOX BOUNDS pp pp pp
0.0000000000000000e+00 3.2000000000000000e+01
0.0000000000000000e+00 3.2000000000000000e+01
0.0000000000000000e+00 3.2000000000000000e+01
ITEM: ATOMS id xu yu zu fx fy fz
1        13.1459321938386        16.3835208156773                 8.65685    -0.00859029117129354     -0.0124627797736338      0.0159852735602652
2        18.8274848400711        16.3892262416344                 8.65685     0.00866130514035094     -0.0130055912720246      0.0169975363230071
3         17.402344993917         16.387795112765                 8.65685    -0.00780304853526824     -0.0159575076769236      0.0233837602573335
4         14.571072038949        16.3849519429358                 8.65685      0.0075811384832714     -0.0161598992882704      0.0239199631127932
5        16.7010751677692        15.1497248501637                 8.65685     -0.0144858278374731      0.0131270806092657       0.020280694925812
6        15.2748269908674        15.1482926087119                 8.65685      0.0148927877874992      0.0136633727043094      0.0215408649062973
7        15.2723418650276        17.6230222053877                 8.65685      0.0315185470461961    -0.00972947001833898      0.0581856831282675
8        16.6985900414216        17.6244544465825                 8.65685       -0.03060011164929    -0.00927532595372785      0.0550899749950599
9        14.5177569207574        13.9484462411751                 8.65685      0.0338042556597143    -0.00336139034983411       0.170149173205779
10        17.4605534827313        13.9514014038861                 8.65685     -0.0347224653989725    -0.00312369180853747       0.167482112370168
11        14.5128635507729         18.821345651893                 8.65685      0.0219964709008871      0.0352165962493176        0.10617787044895
12        17.4556601106552        18.8243008141789                 8.65685     -0.0227952205306958      0.0345048986943288       0.103302062010485
13        13.1273112602358        13.9624445878976                 8.65685     -0.0417194379624373    -0.00179597018071752       0.120322947522882
14        13.1224488081137        18.8045547622743                 8.65685     -0.0278014418744223      0.0255101034448846      0.0747757895652844
15         18.850968226168        13.9681922935721                 8.65685      0.0416762721514727    -0.00155762086235391       0.123599078118198
16        18.8461057714963        18.8103024705805                 8.65685      0.0275860777476259      0.0264281100738757      0.0773103754689874
17         12.426795838139        17.5943199436399                 8.65685      -0.019701261976351    -0.00640356289476853        0.03046268982622
18        12.4292290587396        15.1712798150634                 8.65685    -0.00912988005264916     0.00809213914938463     0.00869928531577112
19        19.5466211966922        15.1784271122721                 8.65685     0.00950434266594102     0.00838900134320539     0.00925470816243542
20        19.5441879750283        17.6014672429596                 8.65685      0.0210130210847332    -0.00660939002533805        0.03265034986292
21        20.9551350226241        15.2244350858224                 8.65685     -0.0156881960325688      0.0180695922705708      0.0295060802704795
22        20.9527913622507        17.5582882295758                 8.65685     -0.0357075523644012      -0.015180748387994       0.082161621585247
23        11.0206256731611        15.2144588294926                 8.65685      0.0160868155755734      0.0188188160204122      0.0314459557168999
24        11.0182820131454        17.5483119722736                 8.65685      0.0359010533259335      -0.016022003697285      0.0852633325984005
25        21.5867264607395        16.3919970781177                 8.65685    -0.00231554692529964    -0.00733382361642345     0.00305263596430237
26        10.3866905744716        16.3807499786644                 8.65685     0.00215794876148581    -0.00723304452663759     0.00298110233118219
27         21.609196045824        18.5859221409264                 8.65685    -0.00911734232997882      0.0137051694947076      0.0529340781833792
28        21.6136022867001        14.1981215696947                 8.65685     -0.0110186497291518     0.00564105131730118      0.0678556106474943
29        10.3598147507275        18.5746254872963                 8.65685      0.0085932485297867      0.0137613540081355      0.0545422350358272
30        10.3642209902605        14.1868249167297                 8.65685      0.0105272649445388     0.00539254924036484      0.0689916673156371
31        12.5998668222426        13.0154548000933                 8.65685    -0.00145719060395169    -0.00089260484362685    -0.00765125294505649
32        12.5931035005993        19.7504833212092                 8.65685   -7.77185656280076e-05    0.000204561687907295     -0.0100026446508695
33        19.3803135329519        13.0222637346313                 8.65685     0.00151900958372352   -0.000946105793704923    -0.00748903024193197
34        19.3735502071424         19.757292260389                 8.65685    8.44349658727874e-05    0.000225005401429585    -0.00996933869785494
35        14.9622865728669        12.9689605638796                 8.65685     0.00202108559755136    -0.00219404586212378    -0.00449428243739707
36         14.955425108682        19.8017221461408                 8.65685    0.000220765725150613    0.000513655236850491    -0.00934306574340258
37        17.0179919240215        12.9710249097393                 8.65685    -0.00201306230069327    -0.00212880620980084    -0.00465012905681717
38         17.011130457531        19.8037864905846                 8.65685   -0.000206104452783952    0.000479470744858886    -0.00941411835214342
39                       0                       0                5.656854                       0                       0                       0
40                       0                       0                2.828427                       0                       0                       0
41                       0                       0                       0                       0                       0                       0
42                       2                       2                5.656854                       0                       0                       0
43                       2                       2                2.828427                       0                       0                       0
44                       2                       2                       0                       0                       0                       0
45                       4                       0                5.656854                       0                       0                       0
46                       4                       0                2.828427                       0                       0                       0
47                       4                       0                       0                       0                       0                       0
48                       6                       2                5.656854    1.02355938445805e-08    2.10899329119492e-08    5.28279620511529e-09
49                       6                       2                2.828427    2.41356913017521e-10    5.42061435851633e-10    2.69211396811602e-10
50                       6                       2                       0                       0                       0                       0
51                       8                       0                5.656854    6.91131943281112e-10   -1.34746936977256e-09    5.01266277940117e-10
52                       8                       0                2.828427    5.85865531680363e-10   -1.35177330021644e-09    9.13343902539026e-10
53                       8                       0                       0                       0                       0                       0
54                      10                       2                5.656854    4.23124136177419e-08    1.68431808393964e-07    4.33474345636949e-08
55                      10                       2                2.828427    1.53022667393487e-09    6.30948078513418e-09    3.13598528171146e-09
56                      10                       2                       0    3.86065622377985e-10    1.83412738985561e-09    1.39737064127915e-09
57                      12                       0                5.656854    1.50203785089287e-09   -6.29575745999852e-09    2.66960485818716e-09
58                      12                       0                2.828427    1.53813144152867e-09   -8.92767693932456e-09    5.62090395356406e-09
59                      12                       0                       0                       0                       0                       0
60                      14                       2                5.656854     2.6733841499214e-08    4.15309824070719e-07    1.08452422834303e-07
61                      14                       2                2.828427    9.70080155731015e-10    1.52604869656003e-08    7.66617948001473e-09
62                      14                       2                       0    1.54434820789479e-10    5.91020781269501e-09    4.48724840927724e-09
63                      16                       0                5.656854   -3.28637972350418e-12   -9.27692920713684e-09    4.07653878403894e-09
64                      16                       0                2.828427   -4.72046517100719e-12   -1.35917878105394e-08    9.11856063406691e-09
65                      16                       0                       0   -1.19072571754349e-13   -1.07392721967608e-10    7.62207267314082e-11
66                      18                       2                5.656854    -2.7385118340156e-08    4.12969477041568e-07    1.07824686603863e-07
67                      18                       2                2.828427   -9.94180517575991e-10    1.51819365338998e-08    7.62513099810815e-09
68                      18                       2                       0    -1.6460211312855e-10    5.88294381479818e-09    4.46525614480262e-09
69                      20                       0                5.656854   -1.51022726004158e-09    -6.3265653725821e-09     2.6642608962453e-09
70                      20                       0                2.828427   -1.55350054040279e-09   -8.95235788606308e-09    5.61793057935589e-09
71                      20                       0                       0                       0                       0                       0
72                      22                       2                5.656854   -4.19314613567537e-08    1.65679673987422e-07    4.26219624592028e-08
73                      22                       2                2.828427   -1.51839392632562e-09    6.21427518896652e-09    3.08711139849618e-09
74                      22                       2                       0   -3.84144962942327e-10    1.80947850487515e-09    1.37776763633891e-09
75                      24                       0                5.656854   -6.89418789118144e-10   -1.34728574255862e-09     4.9750015547417e-10
76                      24                       0                2.828427   -5.87084221868239e-10   -1.35652563861746e-09    9.10301102641395e-10
77                      24                       0                       0                       0                       0                       0
78                      26                       2                5.656854   -1.00139243177086e-08    2.05605805818231e-08    5.14695171892395e-09
79                      26                       2                2.828427   -2.36477069264148e-10    5.29181296472372e-10    2.62619245300804e-10
80                      26                       2                       0                       0                       0                       0
81                      28                       0                5.656854                       0                       0                       0
82                      28                       0                2.828427                       0                       0                       0
83                      28                       0                       0                       0                       0                       0
84                      30                       2                5.656854                       0                       0                       0
85                      30                       2                2.828427                       0                       0                       0
86                      30                       2                       0                       0                       0                       0
87                       0                       4                5.656854    3.62201240161155e-12    2.07502966117445e-10    6.10758878284648e-11
88                       0                       4                2.828427                       0                       0                       0
89                       0                       4                       0                       0                       0                       0
90                       2                       6                5.656854    6.52493040678411e-08    6.22458718791461e-08    2.20992507311905e-08
91                       2                       6                2.828427    2.40959283710198e-09    2.29185993277052e-09    1.58884255406027e-09
92                       2                       6                       0     7.6357724189899e-10    7.47382595116216e-10    7.90291606860976e-10
93                       4                       4                5.656854    6.84404265254345e-09    9.65736592519546e-09    2.83267781193482e-09
94                       4                       4                2.828427     7.7791707838357e-09    1.10505413771141e-08    6.34686510539999e-09
95                       4                       4                       0    6.94449461911638e-11    1.11156339367176e-10    9.44615976338637e-11
96                       6                       6                5.656854     2.0088813607614e-06    3.08753440358558e-06    1.12382181390151e-06
97                       6                       6                2.828427    5.84393386779189e-08    8.87606823073212e-08    6.23656760778891e-08
98                       6                       6                       0    2.38206801754114e-08    3.56002007650051e-08    3.72453951847049e-08
99                       8                       4                5.656854    7.44585618248963e-08    1.79868280030902e-07    5.41576536774876e-08
100                       8                       4                2.828427    7.91061541789957e-08    1.89491696050927e-07    1.10511357966937e-07
101                       8                       4                       0    1.13712149840833e-09    2.72846567187125e-09    2.36500114828861e-09
102                      10                       6                5.656854    1.25207526620288e-05    3.84822118222893e-05    1.47075922372675e-05
103                      10                       6                2.828427    2.81202169532791e-07      8.502491378915e-07    6.22396045048661e-07
104                      10                       6                       0    9.18247890950505e-08    2.71661516059489e-07     2.9114662460478e-07
105                      12                       4                5.656854    1.46888168329975e-07    8.99070483097884e-07    2.78878263545436e-07
106                      12                       4                2.828427    1.40170141337978e-07    8.37183644536979e-07    5.00286324681724e-07
107                      12                       4                       0    1.87302722262032e-09    1.06945415238983e-08    9.46682560230589e-09
108                      14                       6                5.656854    7.12033652573644e-06    0.000107443220809373    4.23329521031415e-05
109                      14                       6                2.828427    1.57979585200738e-07    2.12351053590548e-06    1.59851661575258e-06
110                      14                       6                       0    5.10299390645577e-08    6.13081921600864e-07    6.72628523228837e-07
111                      16                       4                5.656854   -1.38637445109958e-09    1.34619621305015e-06    4.21522873631727e-07
112                      16                       4                2.828427    -1.2688949274709e-09    1.22888466758094e-06    7.41039711619704e-07
113                      16                       4                       0   -1.56888270622161e-11    1.51003243209702e-08    1.35062159065011e-08
114                      18                       6                5.656854   -7.32075752197652e-06    0.000106799656634224    4.20622304034386e-05
115                      18                       6                2.828427   -1.61983978338031e-07    2.11259347987883e-06    1.58971023801803e-06
116                      18                       6                       0   -5.22061004849836e-08    6.10422943146095e-07    6.69488473979638e-07
117                      20                       4                5.656854   -1.47022028781213e-07    8.88484486872198e-07    2.75456228426861e-07
118                      20                       4                2.828427   -1.40427161686707e-07    8.28370715743967e-07    4.94784729596034e-07
119                      20                       4                       0   -1.87802220771969e-09    1.05968829861673e-08    9.37614183855011e-09
120                      22                       6                5.656854   -1.23760702642752e-05    3.77641951375314e-05    1.44201924785863e-05
121                      22                       6                2.828427    -2.7863105627651e-07    8.36529093732369e-07    6.11845327495269e-07
122                      22                       6                       0   -9.12004920983357e-08    2.67954725978332e-07    2.86954144846792e-07
123                      24                       4                5.656854   -7.31381704658775e-08    1.75818024129263e-07    5.28993935039625e-08
124                      24                       4                2.828427   -7.78616098119483e-08    1.85616744812914e-07    1.08174564058428e-07
125                      24                       4                       0   -1.12192622034008e-09    2.67934342325423e-09    2.32076252289142e-09
126                      26                       6                5.656854   -1.95767367936885e-06    2.99860348808944e-06    1.09031622715829e-06
127                      26                       6                2.828427    -5.7124624929319e-08     8.6476586300906e-08    6.07006573603291e-08
128                      26                       6                       0   -2.33651623816889e-08    3.48079968927938e-08     3.6380942510827e-08
129                      28                       4                5.656854   -6.65369912605986e-09    9.36504664622197e-09    2.74463745506532e-09
130                      28                       4                2.828427   -7.57902575399533e-09    1.07401495702388e-08     6.1631740317406e-09
131                      28                       4                       0   -6.78209089555786e-11    1.08299843753203e-10    9.19321755470091e-11
132                      30                       6                5.656854   -6.31096595653201e-08    6.01082238034623e-08     2.1316935093257e-08
133                      30                       6                2.828427   -2.33686524959126e-09    2.21916719612907e-09    1.53675755421687e-09
134                      30                       6                       0   -7.42999616688104e-10    7.26319141075996e-10    7.66960553459794e-10
135                       0                       8                5.656854    2.86039254165157e-10      9.736799008858e-09    4.40095718981512e-09
136                       0                       8                2.828427    3.11199938134526e-10    1.14888377008128e-08    1.01456537312292e-08
137                       0                       8                       0    3.04993203513268e-12    1.23422969304129e-10     1.7254326423749e-10
138                       2                      10                5.656854    2.46266807913562e-06    1.34968327922824e-06    8.51974831875416e-07
139                       2                      10                2.828427    7.16874504298346e-08    3.95772415623402e-08    4.77657509881395e-08
140                       2                      10                       0    2.98104949471459e-08    1.65394974415524e-08      2.919887345318e-08
141                       4                       8                5.656854    6.87207062157192e-07    6.45692197211369e-07    2.98646942686488e-07
142                       4                       8                2.828427    6.00405950466651e-07    5.61158061535371e-07    4.99209226130416e-07
143                       4                       8                       0    7.21300738578965e-09    6.66758686207321e-09    8.78908751562071e-09
144                       6                      10                5.656854     0.00019199094878296    0.000177348045687129    0.000117919077767435
145                       6                      10                2.828427    2.93607846390513e-06     2.6800320496583e-06    3.37388447203694e-06
146                       6                      10                       0    6.85116766281861e-07    6.17537968740234e-07    1.12154879706131e-06
147                       8                       8                5.656854    1.43166514215839e-05    2.51341162595652e-05    1.21783394484339e-05
148                       8                       8                2.828427    8.12209559091971e-06    1.38242243507762e-05    1.28100528351781e-05
149                       8                       8                       0    6.60580004658312e-08     1.0921878258036e-07    1.47493245999057e-07
150                      10                      10                5.656854     0.00190527341422058     0.00404257471959817     0.00294064383692331
151                      10                      10                2.828427    1.75402739001933e-05    3.55927445758651e-05    4.81187849058428e-05
152                      10                      10                       0    2.72241390064398e-06    5.23099241277266e-06    1.00396635430928e-05
153                      12                       8                5.656854    3.71078658762778e-05    0.000178366027873395    9.33615628066788e-05
154                      12                       8                2.828427    1.57387746448519e-05    7.19467238484748e-05    7.07900522754786e-05
155                      12                       8                       0    1.03010014398937e-07    4.43308632359819e-07    6.26602619371516e-07
156                      14                      10                5.656854    0.000724375741377326      0.0114346671356736     0.00911033848638893
157                      14                      10                2.828427    7.26985697603879e-06    8.65041232554956e-05    0.000125950284903134
158                      14                      10                       0    1.21945028190248e-06    1.11293324710401e-05    2.25562549510346e-05
159                      16                       8                5.656854   -2.90214453150354e-07    0.000263067379305968    0.000140683885739863
160                      16                       8                2.828427   -1.18612450858113e-07    0.000102798088705014    0.000103242418203889
161                      16                       8                       0   -7.43838349010865e-10    6.16469863112682e-07    8.87334569186994e-07
162                      18                      10                5.656854   -0.000755526675106939      0.0113881924900607     0.00906506075602188
163                      18                      10                2.828427   -7.49903494553272e-06    8.61878644783138e-05    0.000125387220084325
164                      18                      10                       0   -1.24876346691384e-06    1.10954746694042e-05    2.24725114583425e-05
165                      20                       8                5.656854   -3.71242989650727e-05    0.000176077434007265     9.2066165718805e-05
166                      20                       8                2.828427   -1.57732724842968e-05    7.12081234683771e-05    6.99980808672131e-05
167                      20                       8                       0   -1.03354556729896e-07    4.39626581597083e-07    6.20893201813187e-07
168                      22                      10                5.656854    -0.00188222666531317     0.00396677778775275       0.002879518698233
169                      22                      10                2.828427   -1.73938528045942e-05    3.50578670615811e-05    4.73124348745362e-05
170                      22                      10                       0   -2.70746759705935e-06    5.16879077795287e-06    9.90585826434916e-06
171                      24                       8                5.656854   -1.40130690953243e-05    2.44823135393283e-05    1.18456967158887e-05
172                      24                       8                2.828427   -7.98260596462831e-06    1.35244983639208e-05    1.25162423342958e-05
173                      24                       8                       0   -6.51611894331305e-08    1.07261132060409e-07    1.44683069048283e-07
174                      26                      10                5.656854   -0.000186295125818057    0.000171622797987474    0.000113874411248289
175                      26                      10                2.828427   -2.86575796666321e-06    2.60880994837678e-06    3.27825698109899e-06
176                      26                      10                       0   -6.72008149600206e-07    6.04095111527839e-07    1.09541147265316e-06
177                      28                       8                5.656854   -6.65298102721254e-07    6.23830364506085e-07    2.88124181105318e-07
178                      28                       8                2.828427   -5.83562168983554e-07    5.44294271364863e-07    4.83565563044166e-07
179                      28                       8                       0   -7.04071178869512e-09    6.49513416024749e-09    8.55084136598092e-09
180                      30                      10                5.656854   -2.37463043671032e-06    1.30098340679237e-06     8.1977928394691e-07
181                      30                      10                2.828427   -6.93986688939973e-08    3.82897946560037e-08    4.61382769213223e-08
182                      30                      10                       0   -2.89923769454697e-08    1.60671096630722e-08     2.8321179454919e-08
183                       0                      12                5.656854    3.65255420135418e-09    5.75886404982442e-08    5.46798305820507e-08
184                       0                      12                2.828427    3.68483958346852e-09    6.47707881690709e-08    1.16936843157032e-07
185                       0                      12                       0    3.93439002854168e-11    7.47441245784325e-10    2.18743390809923e-09
186                       2                      14                5.656854    1.74115824990946e-05    3.04246575307939e-06    6.03157990799914e-06
187                       2                      14                2.828427    4.24129266603065e-07     7.8255797669373e-08    2.84181020417878e-07
188                       2                      14                       0     1.4852862091502e-07    2.86263549472429e-08     1.4530758137269e-07
189                       4                      12                5.656854    1.89626722906003e-05    8.12292411609058e-06    8.46242722242028e-06
190                       4                      12                2.828427    1.07746914070357e-05    4.76091892587721e-06    9.17644119773034e-06
191                       4                      12                       0    8.78940787987057e-08    3.98891733956756e-08    1.08801323548966e-07
192                       6                      14                5.656854     0.00281747049766993    0.000729721669490044      0.0017770748793487
193                       6                      14                2.828427    2.66859337016642e-05    7.67578227278227e-06    3.15752486450709e-05
194                       6                      14                       0    4.14740198221587e-06    1.27807142137981e-06    6.97970760596297e-06
195                       8                      12                5.656854    0.000991773963947422    0.000882310982004497     0.00101076910108694
196                       8                      12                2.828427     0.00022900513858589    0.000198692378558105    0.000412159472179339
197                       8                      12                       0    9.53210316378861e-07    8.07772651270503e-07     2.3273731394276e-06
198                      10                      14                5.656854    -0.00892558699922824     -0.0129477764350799      -0.103250933988488
199                      10                      14                2.828427    0.000164744629668622    0.000122587230128794    0.000570124013959857
200                      10                      14                       0    1.58359753741197e-05    1.13053374621544e-05    6.74054888718574e-05
201                      12                      12                5.656854     0.00175561319247513     0.00536056785253733     0.00693942534073163