ITEM: TIMESTEP
0
ITEM: NUMBER OF ATOMS
422
ITEM: BOX BOUNDS ff ff ff
0.0000000000000000e+00 2.3200000000000000e+02
0.0000000000000000e+00 2.3200000000000000e+02
0.0000000000000000e+00 2.3200000000000000e+02
ITEM: ATOMS id xu yu zu fx fy fz
1        113.145932193839        116.783520815677              108.656854     -0.0146460582976254     -0.0252456197623923      0.0405275405959886
2        118.827484840071        116.789226241634              108.656854      0.0119819174174974     -0.0259683334734661      0.0428521574521266
3        117.402344993917        116.787795112765              108.656854     -0.0100042546106705     -0.0241031137428227      0.0540245801175822
4        114.571072038949        116.784951942936              108.656854      0.0154692446892716     -0.0245426814512935      0.0553342401590741
5        116.701075167769        115.549724850164              108.656854    -0.00123316955659847      0.0107482040346559     0.00927584972477464
6        115.274826990867        115.548292608712              108.656854      0.0091205126142524      0.0111148991844739      0.0100124004986464
7        115.272341865028        118.023022205388              108.656854      0.0358899262771493     0.00343329063839237      0.0626508897864306
8        116.698590041422        118.024454446583              108.656854     -0.0273616816766649     0.00337234982861742      0.0591139479038199
9        114.517756920757        114.348446241175              108.656854      0.0320860625628812      0.0182327623777794       0.166912761997434
10        117.460553482731        114.351401403886              108.656854     -0.0514015180295465      0.0181219717871758       0.165052553253651
11        114.512863550773        119.221345651893              108.656854      0.0140336464011845      0.0248491071098431      0.0621245958200627
12        117.455660110655        119.224300814179              108.656854     -0.0323466986362549      0.0245246831579975      0.0610651949925927
13        113.127311260236        114.362444587898              108.656854     -0.0305072531116977      0.0112966288569767       0.115002429020019
14        113.122448808114        119.204554762274              108.656854    -0.00881749220989617        0.02005354984392      0.0402944519912437
15        118.850968226168        114.368192293572              108.656854      0.0143904030314587      0.0119406774560103       0.119594526243579
16        118.846105771496         119.21030247058              108.656854    -0.00672710758360934      0.0213437681411323      0.0435901732026797
17        112.426795838139         117.99431994364              108.656854     -0.0156652874191997     0.00775395597957512      0.0343028670736279
18         112.42922905874        115.571279815063              108.656854     0.00165598071608036     0.00405318800355776      0.0064029811645158
19        119.546621196692        115.578427112272              108.656854     0.00834216042771588     0.00406761096962079     0.00520419450743736
20        119.544187975028         118.00146724296              108.656854      0.0266307095177308     0.00745040673993838      0.0350941362094144
21        120.955135022624        115.624435085822              108.656854       0.149434417097706       0.128971772216311        0.03150036492621
22        120.952791362251        117.958288229576              108.656854       0.114499116416003     -0.0410312553269165      0.0367777644520176
23        111.020625673161        115.614458829493              108.656854     -0.0314277420966598       0.131407975982441      0.0537906982118206
24        111.018282013145        117.948311972274              108.656854     0.00195107435727615     -0.0347837735111482      0.0618270146086294
25        121.586726460739        116.791997078118              108.656854     -0.0599380704923826     -0.0608019344136249      0.0395988571512997
26        110.386690574472        116.780749978664              108.656854    -0.00626427459598888     -0.0633525124571413      0.0251372944441336
27        121.609196045824        118.985922140926              108.656854      -0.167062163325287    0.000354034691108729       0.102216138670531
28          121.6136022867        114.598121569695              108.656854      -0.177081364808472    -0.00204544027787276       0.142502295898943
29        110.359814750727        118.974625487296              108.656854      0.0210312447628017     -0.0101233345679501      0.0736734501536526
30         110.36422099026         114.58682491673              108.656854      0.0267839384833572    -0.00368447875929942       0.112237116409089
31        112.599866822243        113.415454800093              108.656854     -0.0178205189844245      0.0252315285870863    -0.00292036953269115
32        112.593103500599        120.150483321209              108.656854     -0.0151075836016671      0.0329679982918083      0.0117500450004807
33        119.380313532952        113.422263734631              108.656854      0.0604064458431604      0.0254235089785821    -0.00890466694387193
34        119.373550207142        120.157292260389              108.656854      0.0551364613403631      0.0306936581833593     0.00570592567116267
35        114.962286572867         113.36896056388              108.656854     0.00736501565934283      0.0142952022391176    -0.00584425567673347
36        114.955425108682        120.201722146141              108.656854     0.00369667621691405      0.0228450120888472    -0.00342357519857237
37        117.017991924022        113.371024909739              108.656854      0.0194356971799942      0.0143905257761291    -0.00689349457833018
38        117.011130457531        120.203786490585              108.656854      0.0216208480891885      0.0224058397504154    -0.00396851268242787
39                     100                     100              105.656854       0.212137335452932       0.213811812884682      -0.975729548988352
40                     100                     100              102.828427       0.432026339133571       0.430552654674461   -0.000305098661170693
41                     100                     100                     100        0.21214725324961       0.213361012373443       0.976247352118311
42                     102                     102              105.656854      -0.344440315727657      -0.347258074431118      -0.277867686614923
43                     102                     102              102.828427     -0.0509108515515213     -0.0485329094550305    0.000541079226493143
44                     102                     102                     100      -0.344502500141989      -0.346353137376882       0.276980621504099
45                     104                     100              105.656854      0.0958764973234729       0.959849089697198      -0.808999212896766
46                     104                     100              102.828427     -0.0638483778734646       0.726849534280816   -0.000194656508987479
47                     104                     100                     100      0.0962239481084323       0.959360963117901       0.809302955190048
48                     106                     102              105.656854      -0.149369386775467        -0.5144823667055      -0.381332127848376
49                     106                     102              102.828427       0.142424140501083      0.0662813428745438    0.000229965901145086
50                     106                     102                     100      -0.150271578727112      -0.513638276615963       0.381008681983652
51                     108                     100              105.656854       0.109900186415094        1.05997333595271      -0.801917096834255
52                     108                     100              102.828427       -0.11180221651513       0.639942891211253    0.000257253996785594
53                     108                     100                     100       0.110765826905912        1.06000119864371       0.801441879189278
54                     110                     102              105.656854       -0.14392398847711      -0.581876779862711      -0.373902918210739
55                     110                     102              102.828427        0.14843374217547       0.134808249350648   -0.000859053405185703
56                     110                     102                     100      -0.145804451561793      -0.582611526275946       0.375385351213426
57                     112                     100              105.656854       0.132108200352861        1.10876903386903      -0.810539360922302
58                     112                     100              102.828427      -0.135762514914559       0.589233597694568    0.000978896805492272
59                     112                     100                     100       0.133013481279308         1.1099682594403       0.808862926690406
60                     114                     102              105.656854      -0.164333058247228      -0.619793036819467      -0.361793441475337
61                     114                     102              102.828427       0.169070446726715       0.175360831688785    -0.00214024113706692
62                     114                     102                     100       -0.16544205995208      -0.622908921175143       0.365353222727788
63                     116                     100              105.656854       0.166588144269288         1.1445778496666       -0.82099918482034
64                     116                     100              102.828427      -0.170771564000938       0.551861378248681     0.00136364350629711
65                     116                     100                     100       0.166587264216672        1.14647570108029       0.818690491948907
66                     118                     102              105.656854      -0.208963515394941      -0.651990131564722      -0.348360259431032
67                     118                     102              102.828427       0.214018217034626       0.208606133537335    -0.00213852968104705
68                     118                     102                     100      -0.207851405709874      -0.655101170191965       0.351917290739412
69                     120                     100              105.656854       0.222771145378966        1.18285111470527      -0.835107435900252
70                     120                     100              102.828427      -0.228325682701114       0.512726898268567    0.000978297588959889
71                     120                     100                     100       0.221866703842772         1.1840481973165       0.833431972931416
72                     122                     102              105.656854      -0.287931090493938      -0.688045657629151      -0.330373645335188
73                     122                     102              102.828427       0.293001476557358       0.244371706020126    -0.00085850153784902
74                     122                     102                     100      -0.286056150720019       -0.68877782666433       0.331855113491774
75                     124                     100              105.656854       0.325978418451329        1.23661567146506      -0.852115025820639
76                     124                     100              102.828427      -0.322712687495365       0.459559214398715    0.000258336707413688
77                     124                     100                     100       0.325115638744843        1.23664474362775       0.851638079983631
78                     126                     102              105.656854      -0.461392656487327      -0.727280806845804      -0.331901664686557
79                     126                     102              102.828427       0.396990168702344       0.281457044949135    0.000226217700575174
80                     126                     102                     100      -0.460494527594329      -0.726442972997862       0.331584133869915
81                     128                     100              105.656854       0.708154103215056        1.34049566401422      -0.754798801264808
82                     128                     100              102.828427       -0.28082236698948       0.396230929858501   -0.000191983722519312
83                     128                     100                     100       0.707807709343803        1.34001137737548       0.755098163884072
84                     130                     102              105.656854        -1.3406452515042      -0.708431282377748      -0.755309548856078
85                     130                     102              102.828427      -0.395850715245375       0.280809950990039     0.00053625681892503
86                     130                     102                     100       -1.34058238874321      -0.707533144334361       0.754430320241452
87                     100                     104              105.656854       0.958877218067422      0.0997582308132735      -0.808552292985737
88                     100                     104              102.828427       0.727801967630677     -0.0670395090815991    -0.00087107769701372
89                     100                     104                     100       0.958483224437922      0.0986197171353046       0.809999617718251
90                     102                     106              105.656854      -0.513293565273203      -0.156531510854379      -0.382458811244627
91                     102                     106              102.828427      0.0649770753050076       0.147862071822245     0.00176891656826456
92                     102                     106                     100      -0.512386022975009      -0.153977072538255       0.379611093751689
93                     104                     104              105.656854       0.247091796625166       0.252215188032815      -0.388777197961861
94                     104                     104              102.828427      -0.179966569521873      -0.184010450916865     -0.0010054504329841
95                     104                     104                     100       0.247372803218744       0.250268192480592       0.390367882890167
96                     106                     106              105.656854      -0.233008334684532       -0.24332390132176      -0.503878620213761
97                     106                     106              102.828427        0.22536239161437        0.23262112449333     0.00191101384987548
98                     106                     106                     100      -0.234265148881379      -0.238849398381588        0.50088715099749
99                     108                     104              105.656854        0.17382416400029        0.33777002859694      -0.375482680791302
100                     108                     104              102.828427      -0.177632108986918        -0.2683137468075   -4.56714300710441e-05
101                     108                     104                     100       0.176349669581237       0.336532629016424       0.375454287555008
102                     110                     106              105.656854        -0.1839941868812       -0.29184689845018      -0.489768795251933
103                     110                     106              102.828427       0.193181258761987       0.285060691463205    -0.00126709031883385
104                     110                     106                     100      -0.191313160004848      -0.291591649830922       0.491951749145599
105                     112                     104              105.656854       0.168310967598406       0.380027446776869      -0.390430799246641
106                     112                     104              102.828427        -0.1748646201914      -0.314730181412203     0.00258064279321419
107                     112                     104                     100       0.172061927637472       0.383484509393936       0.386149960361755
108                     114                     106              105.656854      -0.190050738605788      -0.310740644000979      -0.469198579535003
109                     114                     106              102.828427       0.198322019524234       0.312613754215181    -0.00691194549963958
110                     114                     106                     100      -0.195399643663274      -0.322455400084758        0.48076046479391
111                     116                     104              105.656854       0.198196413113772       0.407276165761686      -0.405322676997627
112                     116                     104              102.828427      -0.203401841203497      -0.345013001376786     0.00425247574552605
113                     116                     104                     100        0.19818889780559       0.414179912257736       0.398354602127555
114                     118                     106              105.656854      -0.239179520379352       -0.33297469071599      -0.453303436804337
115                     118                     106              102.828427       0.242505920566873       0.335523828039745    -0.00689852075790407
116                     118                     106                     100      -0.233804993297493      -0.344651429097142       0.464841877176187
117                     120                     104              105.656854       0.259103700832852       0.436696688376262      -0.421152904031672
118                     120                     104              102.828427      -0.264128932021391      -0.373237565104818     0.00257479888019499
119                     120                     104                     100       0.255356945463245       0.440137508794332       0.416881627219961
120                     122                     106              105.656854      -0.316242025213661      -0.361833901111097      -0.437996198849423
121                     122                     106              102.828427       0.318759337952406       0.357319091848491    -0.00126097097867934
122                     122                     106                     100      -0.308960832014043      -0.361562931370892       0.440169028936345
123                     124                     104              105.656854       0.367412681536409       0.463070270305274      -0.438805881254241
124                     124                     104              102.828427      -0.362035893770063       -0.39752087859996   -4.23251686166853e-05
125                     124                     104                     100        0.36490086838042       0.461839413516895       0.438772305061194
126                     126                     106              105.656854      -0.466224085056754      -0.367611594928985      -0.440791919211646
127                     126                     106              102.828427       0.400975785927149       0.360853744762389     0.00189535634834048
128                     126                     106                     100       -0.46497818502586      -0.363170205935801       0.437825912820196
129                     128                     104              105.656854       0.728078397598726       0.461707227287097        -0.3309228313723
130                     128                     104              102.828427       -0.28263070948785       -0.39669351392504   -0.000996604359350505
131                     128                     104                     100       0.727798156870999       0.459775083258368       0.332499561608227
132                     130                     106              105.656854       -1.23709886422596      -0.327785261006531      -0.853294684231315
133                     130                     106              102.828427      -0.458522562711101       0.323597221003769     0.00175446874439424
134                     130                     106                     100       -1.23799783541774      -0.325251413102092       0.850469799697327
135                     100                     108              105.656854        1.06238942520708       0.116475324983265      -0.800211094150302
136                     100                     108              102.828427       0.638572116226116       -0.11683762617091    -0.00214627144978736
137                     100                     108                     100        1.06048096201123       0.114219639437304       0.803706180678985
138                     102                     110              105.656854        -0.5885349321961      -0.155563744009563      -0.378423804917939
139                     102                     110              102.828427       0.138067753894192       0.156373444232091     0.00465219413256524
140                     102                     110                     100      -0.583576727526322      -0.150596344563613       0.370965791393891
141                     104                     108              105.656854       0.336916499663355       0.188304623453306      -0.372123727472618
142                     104                     108              102.828427       -0.26656831402374      -0.187221944262388    -0.00388242089479289
143                     104                     108                     100        0.33466852563264       0.182009100978755       0.378333304759422
144                     106                     110              105.656854      -0.294133714925562      -0.216187294293835      -0.502218934776449
145                     106                     110              102.828427       0.282529120600415       0.209811499244593      0.0089473635777027
146                     106                     110                     100      -0.288558874448195      -0.199315039927434        0.48618173542825
147                     108                     108              105.656854       0.222396586652424       0.246043225940928      -0.361695784692963
148                     108                     108              102.828427      -0.229567891559456      -0.243026182644048    -0.00329990955821737
149                     108                     108                     100       0.228437053623038       0.235503503443799       0.367547360906399
150                     110                     110              105.656854      -0.190831313599184      -0.248799915448223      -0.482588541945654
151                     110                     110              102.828427       0.218654771497384       0.241977305065415     0.00246519499193093
152                     110                     110                     100      -0.222603721770419      -0.232309501390413       0.475589825284756
153                     112                     108              105.656854       0.183427368741667       0.257727374108999      -0.390984849357234
154                     112                     108              102.828427      -0.200818019018007      -0.269408328628412     0.00698635327917953
155                     112                     108                     100       0.202097615860828       0.267220606195525       0.378525070955252
156                     114                     110              105.656854      -0.187011487388672      -0.198449540482534      -0.410756873708707
157                     114                     110              102.828427       0.211411623738223       0.246430644946722     -0.0224411456786791
158                     114                     110                     100      -0.214019507024267      -0.249081014653311       0.468538857834458
159                     116                     108              105.656854       0.220242888891422       0.258237495831721      -0.417586229063493
160                     116                     108              102.828427      -0.226106460625731      -0.283498029719675      0.0151037391193367
161                     116                     108                     100         0.2201855309093       0.286258517500188       0.390336683741126
162                     118                     110              105.656854      -0.275909571426468      -0.209677227744433      -0.393626977791635
163                     118                     110              102.828427       0.263998057243361       0.257783561625769      -0.022359534343527
164                     118                     110                     100      -0.248673098235785      -0.260052425064186       0.451164585225049
165                     120                     108              105.656854       0.291589043203706       0.291442398824901      -0.425720227457669
166                     120                     108              102.828427      -0.287379441096365      -0.304090075323029     0.00694331152932364
167                     120                     108                     100       0.272956191056897       0.300812323704087       0.413344994531865
168                     122                     110              105.656854      -0.345572588854885      -0.282398952022762      -0.426221585802901
169                     122                     110              102.828427       0.330939962262184       0.276556892879148     0.00250106818557225
170                     122                     110                     100       -0.31415218223363      -0.265803506519344       0.419156882481557
171                     124                     108              105.656854       0.374455885283549       0.315609208730155      -0.434067068112385
172                     124                     108              102.828427       -0.36738402978565       -0.31491384706263    -0.00328132335070961
173                     124                     108                     100       0.368484784159179       0.305132103605291       0.439874892018556
174                     126                     110              105.656854      -0.441325746969231      -0.271945816948653      -0.430767423925697
175                     126                     110              102.828427       0.381108216695585       0.267510165442178     0.00887907819454355
176                     126                     110                     100      -0.446872922001439      -0.255222549231834       0.414883867397592
177                     128                     108              105.656854        0.68960776925088       0.292382484611357      -0.327420194902576
178                     128                     108              102.828427      -0.247205724967783      -0.294729517707838    -0.00385045381365927
179                     128                     108                     100       0.691836926374535       0.286141225146158       0.333577067848798
180                     130                     110              105.656854       -1.18095690201421      -0.227894764937434      -0.838397993184834
181                     130                     110              102.828427      -0.512172914200656       0.231113601980184     0.00461394481771271
182                     130                     110                     100       -1.18586952963152      -0.222968964521487       0.831001740758718
183                     100                     112              105.656854        1.11768581353575       0.138575202399786       -0.80669477475227
184                     100                     112              102.828427       0.583756514139603      -0.140431968787634     -0.0041034956047698
185                     100                     112                     100        1.11262543093396       0.135993700444382       0.813307449946515
186                     102                     114              105.656854      -0.638290553825878       -0.17184451664961       -0.37107248454727
187                     102                     114              102.828427       0.184795774912609       0.173862958785058     0.00830742299757042
188                     102                     114                     100      -0.626551321772547      -0.168114273491976       0.357630648138729
189                     104                     112              105.656854        0.39854660340221       0.188517240520138      -0.376593282212543
190                     104                     112              102.828427      -0.321425074295474      -0.186253720554389     -0.0105035717600871
191                     104                     112                     100        0.38478367653464       0.177855359840539       0.394493309154308
192                     106                     114              105.656854      -0.354686391149845      -0.214911545508771      -0.514685699817113
193                     106                     114              102.828427       0.321744401613547       0.209708710853595      0.0219086371828144
194                     106                     114                     100      -0.322606486212814      -0.200248467596415       0.466977842838489
195                     108                     112              105.656854       0.271619875773103       0.256987079367706      -0.330752499611951
196                     108                     112              102.828427      -0.262804156869817      -0.224287876798112     -0.0179497545237885
197                     108                     112                     100       0.261766745780713       0.211196419771803       0.388482320902433
198                     110                     114              105.656854      -0.153084650096594      -0.247608566762405      -0.679497040641882
199                     110                     114              102.828427       0.225768652490584       0.227767589053377      0.0159217186863069
200                     110                     114                     100      -0.240011849594475      -0.220165210004965       0.456562508679275
201                     112                     112              105.656854       0.122802202244127       0.224590057295053      -0.430711603394651