ITEM: TIMESTEP
0
ITEM: NUMBER OF ATOMS
422
ITEM: BOX BOUNDS ff ff ff
0.0000000000000000e+00 2.3200000000000000e+02
0.0000000000000000e+00 2.3200000000000000e+02
0.0000000000000000e+00 2.3200000000000000e+02
ITEM: ATOMS id xu yu zu fx fy fz
1        113.156549965416        115.994138587254        108.667471771577   -0.000286384599317991   -0.000349032231474803      0.0293465854783082
2        118.793968932927         115.95571033449        108.623338092856    -0.00015855816761522   -0.000164226427544117      0.0166206160372273
3         117.35980891651        115.945259035358        108.614317922593   -2.68064062020399e-05    6.80291560518346e-05     -0.0124365785882584
4        114.609620381958        116.023500285945        108.695402343009   -0.000944521195539183   -0.000448603447696065     -0.0602821468010698
5        116.661972785005          114.7106224674        108.617751617236    0.000425554687565782   -1.29546521491546e-05      0.0172622518029072
6        115.269986847512        114.743452465357        108.652013856645    0.000594547825638883    0.000639676773006099     -0.0307766177072524
7        115.259775219397        117.210455559757         108.64428735437      0.0025532160104932    0.000461701769122844      0.0599577624902419
8         116.65911754926        117.184981954421        108.617381507838    6.60598498686314e-07   -0.000294666217470422     0.00730639783357148
9        114.470250701539        113.500940021957        108.609347780782     0.00265569909069672      0.0024007306866306       0.132624976869644
10        117.438634693644        113.529482614799        108.634935210913   -0.000580382928761926    5.16623166285296e-05      0.0226782630261596
11         114.55190152585         118.46038362697        108.695891975077    -0.00295680483193223   -0.000358128988657415       -0.05932284145904
12        117.449236370034        118.417877073558        108.650430259379   -0.000911484974744812    0.000666223534705289      0.0232154517735638
13        113.157498819269        113.592632146931        108.687041559033    -0.00272306718088004    0.000784312194530137      -0.132768547113985
14        113.161512387643        118.443618341803        108.695917579529     0.00103151874912831    -0.00178199239235306      -0.017155337925108
15        118.861500633108        113.578724700512         108.66738640694   -0.000155770180671709     0.00027317454731603     -0.0502449296927587
16        118.884345833561        118.448542532645        108.695094062064    -0.00146126088362018    -0.00261938505449032     -0.0823517740369554
17        112.471907085751        117.239431191252        108.701965247612   -0.000197542036184973    0.000640185424775621     -0.0327158989120143
18        112.423623092313        114.765673848636        108.651248033573     0.00076079047239215     0.00053119844140742        0.10436728091245
19        119.527367284884        114.759173200464        108.637600088192    -0.00268080937691554    -0.00540021207324625      -0.149740353884518
20        119.544777336575        117.202056604506        108.657443361546     0.00038895281731333    0.000313259136037484      -0.019280360118712
21        120.908923539431        114.778223602629        108.610642516807    -0.00480067483778344      0.0158597415180151       0.467526223459395
22        120.928331234611        117.133828101936        108.632393872361     0.00112453004691634   -0.000865724499923332       0.101144714238343
23        111.043926346222        114.837759502554        108.680154673061     -0.0017657853485127     0.00155824139595835      -0.161882626611624
24        111.044375358317        117.174405317445        108.682947345172   -0.000616578542730367     0.00012597023415133      0.0602885802068159
25        121.554846010646        115.960116628024        108.624973549906     0.00326534797254956   -0.000165062138927145      -0.172604141617231
26        110.415873408467         116.00993281266        108.686036833996    0.000432057301868501   -0.000221670957130961       0.032291870835606
27        121.593763008002        118.170489103104        108.641420962178    -0.00026185634341702    0.000470169782243041     -0.0346910413598414
28        121.642030633704        113.826549916699        108.685282347004     0.00426645270839943     -0.0100434245941549      -0.169960590977223
29        110.379623167818        118.194433904387         108.67666241709    0.000152553794157121    -1.7004546837031e-05     -0.0188952985906098
30        110.370195809665        113.792799736134        108.662828819404    0.000252281103988029    -0.00103247929048633      0.0524608976078793
31        112.550287317369        112.565875295219        108.607274495126   -0.000562946059351292     -0.0020241153867273      0.0303396106816819
32        112.555059881958        119.312439702568        108.618810381358   -0.000558043030362501     0.00108785357010871      0.0166466561305949
33        119.355052932337        112.597003134016        108.631593399385    0.000327290456668082   -0.000493611895586251      0.0180516934710825
34        119.339858517526        119.323600570772        108.623162310383     0.00132762967039194     0.00223125886226291      0.0355508255711992
35           114.988004158        112.594678149013        108.682571585134    0.000540309633495351    -0.00288824722450538     -0.0395671263621051
36        114.935076156592         119.38137319405         108.63650504791     0.00141270069468201     0.00110408554620989      0.0262374635390913
37        117.013349900955        112.566382886673        108.652211976934    6.52870456058106e-05   -0.000141474811873294    -0.00627946023356984
38        117.012274752652        119.404930785706        108.657998295121    7.18962440939135e-05     5.4541942072251e-05    -0.00296244997388638
39                     100                     100              105.656854                       0                       0                       0
40                     100                     100              102.828427                       0                       0                       0
41                     100                     100                     100                       0                       0                       0
42                     102                     102              105.656854                       0                       0                       0
43                     102                     102              102.828427                       0                       0                       0
44                     102                     102                     100                       0                       0                       0
45                     104                     100              105.656854                       0                       0                       0
46                     104                     100              102.828427                       0                       0                       0
47                     104                     100                     100                       0                       0                       0
48                     106                     102              105.656854                       0                       0                       0
49                     106                     102              102.828427                       0                       0                       0
50                     106                     102                     100                       0                       0                       0
51                     108                     100              105.656854                       0                       0                       0
52                     108                     100              102.828427                       0                       0                       0
53                     108                     100                     100                       0                       0                       0
54                     110                     102              105.656854                       0                       0                       0
55                     110                     102              102.828427                       0                       0                       0
56                     110                     102                     100                       0                       0                       0
57                     112                     100              105.656854                       0                       0                       0
58                     112                     100              102.828427                       0                       0                       0
59                     112                     100                     100                       0                       0                       0
60                     114                     102              105.656854                       0                       0                       0
61                     114                     102              102.828427                       0                       0                       0
62                     114                     102                     100                       0                       0                       0
63                     116                     100              105.656854                       0                       0                       0
64                     116                     100              102.828427                       0                       0                       0
65                     116                     100                     100                       0                       0                       0
66                     118                     102              105.656854                       0                       0                       0
67                     118                     102              102.828427                       0                       0                       0
68                     118                     102                     100                       0                       0                       0
69                     120                     100              105.656854                       0                       0                       0
70                     120                     100              102.828427                       0                       0                       0
71                     120                     100                     100                       0                       0                       0
72                     122                     102              105.656854                       0                       0                       0
73                     122                     102              102.828427                       0                       0                       0
74                     122                     102                     100                       0                       0                       0
75                     124                     100              105.656854                       0                       0                       0
76                     124                     100              102.828427                       0                       0                       0
77                     124                     100                     100                       0                       0                       0
78                     126                     102              105.656854                       0                       0                       0
79                     126                     102              102.828427                       0                       0                       0
80                     126                     102                     100                       0                       0                       0
81                     128                     100              105.656854                       0                       0                       0
82                     128                     100              102.828427                       0                       0                       0
83                     128                     100                     100                       0                       0                       0
84                     130                     102              105.656854                       0                       0                       0
85                     130                     102              102.828427                       0                       0                       0
86                     130                     102                     100                       0                       0                       0
87                     100                     104              105.656854                       0                       0                       0
88                     100                     104              102.828427                       0                       0                       0
89                     100                     104                     100                       0                       0                       0
90                     102                     106              105.656854                       0                       0                       0
91                     102                     106              102.828427                       0                       0                       0
92                     102                     106                     100                       0                       0                       0
93                     104                     104              105.656854                       0                       0                       0
94                     104                     104              102.828427                       0                       0                       0
95                     104                     104                     100                       0                       0                       0
96                     106                     106              105.656854                       0                       0                       0
97                     106                     106              102.828427                       0                       0                       0
98                     106                     106                     100                       0                       0                       0
99                     108                     104              105.656854                       0                       0                       0
100                     108                     104              102.828427                       0                       0                       0
101                     108                     104                     100                       0                       0                       0
102                     110                     106              105.656854                       0                       0                       0
103                     110                     106              102.828427                       0                       0                       0
104                     110                     106                     100                       0                       0                       0
105                     112                     104              105.656854                       0                       0                       0
106                     112                     104              102.828427                       0                       0                       0
107                     112                     104                     100                       0                       0                       0
108                     114                     106              105.656854                       0                       0                       0
109                     114                     106              102.828427                       0                       0                       0
110                     114                     106                     100                       0                       0                       0
111                     116                     104              105.656854                       0                       0                       0
112                     116                     104              102.828427                       0                       0                       0
113                     116                     104                     100                       0                       0                       0
114                     118                     106              105.656854                       0                       0                       0
115                     118                     106              102.828427                       0                       0                       0
116                     118                     106                     100                       0                       0                       0
117                     120                     104              105.656854                       0                       0                       0
118                     120                     104              102.828427                       0                       0                       0
119                     120                     104                     100                       0                       0                       0
120                     122                     106              105.656854                       0                       0                       0
121                     122                     106              102.828427                       0                       0                       0
122                     122                     106                     100                       0                       0                       0
123                     124                     104              105.656854                       0                       0                       0
124                     124                     104              102.828427                       0                       0                       0
125                     124                     104                     100                       0                       0                       0
126                     126                     106              105.656854                       0                       0                       0
127                     126                     106              102.828427                       0                       0                       0
128                     126                     106                     100                       0                       0                       0
129                     128                     104              105.656854                       0                       0                       0
130                     128                     104              102.828427                       0                       0                       0
131                     128                     104                     100                       0                       0                       0
132                     130                     106              105.656854                       0                       0                       0
133                     130                     106              102.828427                       0                       0                       0
134                     130                     106                     100                       0                       0                       0
135                     100                     108              105.656854                       0                       0                       0
136                     100                     108              102.828427                       0                       0                       0
137                     100                     108                     100                       0                       0                       0
138                     102                     110              105.656854                       0                       0                       0
139                     102                     110              102.828427                       0                       0                       0
140                     102                     110                     100                       0                       0                       0
141                     104                     108              105.656854                       0                       0                       0
142                     104                     108              102.828427                       0                       0                       0
143                     104                     108                     100                       0                       0                       0
144                     106                     110              105.656854                       0                       0                       0
145                     106                     110              102.828427                       0                       0                       0
146                     106                     110                     100                       0                       0                       0
147                     108                     108              105.656854                       0                       0                       0
148                     108                     108              102.828427                       0                       0                       0
149                     108                     108                     100                       0                       0                       0
150                     110                     110              105.656854                       0                       0                       0
151                     110                     110              102.828427                       0                       0                       0
152                     110                     110                     100                       0                       0                       0
153                     112                     108              105.656854                       0                       0                       0
154                     112                     108              102.828427                       0                       0                       0
155                     112                     108                     100                       0                       0                       0
156                     114                     110              105.656854                       0                       0                       0
157                     114                     110              102.828427                       0                       0                       0
158                     114                     110                     100                       0                       0                       0
159                     116                     108              105.656854                       0                       0                       0
160                     116                     108              102.828427                       0                       0                       0
161                     116                     108                     100                       0                       0                       0
162                     118                     110              105.656854                       0                       0                       0
163                     118                     110              102.828427                       0                       0                       0
164                     118                     110                     100                       0                       0                       0
165                     120                     108              105.656854                       0                       0                       0
166                     120                     108              102.828427                       0                       0                       0
167                     120                     108                     100                       0                       0                       0
168                     122                     110              105.656854                       0                       0                       0
169                     122                     110              102.828427                       0                       0                       0
170                     122                     110                     100                       0                       0                       0
171                     124                     108              105.656854                       0                       0                       0
172                     124                     108              102.828427                       0                       0                       0
173                     124                     108                     100                       0                       0                       0
174                     126                     110              105.656854                       0                       0                       0
175                     126                     110              102.828427                       0                       0                       0
176                     126                     110                     100                       0                       0                       0
177                     128                     108              105.656854                       0                       0                       0
178                     128                     108              102.828427                       0                       0                       0
179                     128                     108                     100                       0                       0                       0
180                     130                     110              105.656854                       0                       0                       0
181                     130                     110              102.828427                       0                       0                       0
182                     130                     110                     100                       0                       0                       0
183                     100                     112              105.656854                       0                       0                       0
184                     100                     112              102.828427                       0                       0                       0
185                     100                     112                     100                       0                       0                       0
186                     102                     114              105.656854                       0                       0                       0
187                     102                     114              102.828427                       0                       0                       0
188                     102                     114                     100                       0                       0                       0
189                     104                     112              105.656854                       0                       0                       0
190                     104                     112              102.828427                       0                       0                       0
191                     104                     112                     100                       0                       0                       0
192                     106                     114              105.656854                       0                       0                       0
193                     106                     114              102.828427                       0                       0                       0
194                     106                     114                     100                       0                       0                       0
195                     108                     112              105.656854                       0                       0                       0
196                     108                     112              102.828427                       0                       0                       0
197                     108                     112                     100                       0                       0                       0
198                     110                     114              105.656854                       0                       0                       0
199                     110                     114              102.828427                       0                       0                       0
200                     110                     114                     100                       0                       0                       0
201                     112                     112              105.656854                       0                       0                       0