ITEM: TIMESTEP
0
ITEM: NUMBER OF ATOMS
422
ITEM: BOX BOUNDS ff ff ff
0.0000000000000000e+00 2.3200000000000000e+02
0.0000000000000000e+00 2.3200000000000000e+02
0.0000000000000000e+00 2.3200000000000000e+02
ITEM: ATOMS id xu yu zu fx fy fz
1        113.124301915032         115.96189053687        108.635223721193        4119.98932083898        3063.16701123277       -536.255582614103
2        118.825936294035        115.987677695598        108.655305453964        1092.56012957862        3174.90681421805       -518.104755788485
3        117.425840224647        116.011290343495         108.68034923073       -125.905873475661        597.168676797993        282.852570590296
4        114.620583823695        116.034463727682        108.706365784746       -9097.83861108121       -12894.0621865114        1745.09912482942
5        116.739777484092        114.788427166487        108.695556316323       -756.659278076628       -1768.60345932544        314.773484636633
6        115.303458365519        114.776923983363        108.685485374651        238.771662793948       -375.127150666586       -73.9986808070169
7        115.224557920514        117.175238260874        108.609070055486         8156.6383356944        12573.8286113345       -1593.31786328173
8        116.674575281248        117.200439686409        108.632839239827       -1011.75525077611         2771.8026796572       -257.637877334745
9        114.534982460504        113.565671780922        108.674079539747       -1672.50797607643        15326.9770688011        783.765193704234
10        117.442628070126        113.533475991281        108.638928587395        9096.75490568093         21798.189203678       -345.323950896404
11        114.463808544381        118.372290645501        108.607798993608        2637.62052334328       -1876.29771985432       -682.702273331535
12        117.472890068058        118.441530771581        108.674083957402        12970.2457638869       -29859.1814482961        1565.47465946239
13        113.156788628633        113.591921956295        108.686331368398       -614.880100993914        -84.030893201033        741.138789479752
14        113.091229831894        118.373335786055        108.625635023781        9992.09071799287       -3394.42383293749       -1565.60717729857
15        118.874901980543        113.592126047947        108.680787754375       -12266.3688662665        20093.4423075494       -481.213825687199
16        118.889807891283        118.454004590368        108.700556119787       -9343.20265280222       -14254.3779945998       -29.7610103736443
17        112.467212650692        117.234736756193        108.697270812553       -8840.27919382226       -11713.9979507378          1451.198129509
18        112.431890457604        114.773941213928        108.659515398864       -3766.64334382623       -976.370522864578        105.014576958694
19         119.59317520006         114.82498111564        108.703408003368       -4967.76497763902       -1379.07186544067        927.706118030374
20        119.590862367042        117.248141634973        108.703528392014       -3703.23076509079       -2893.44179129691        411.328331301354
21        120.938284734824        114.807584798022          108.6400037122       -3136.72946535837        10305.6113575971       -996.484523277053
22        120.959897694766        117.165394562091        108.663960332515         -1823.613016583       -9600.24748172893       -258.705970431386
23        110.995031465937        114.788864622269        108.631259792776        17656.1277768878         28535.425323548       -1909.31876510306
24         110.96906604773        117.099096006859        108.607638034585        14642.1804114706       -2227.19092532455        -1042.6849670208
25        121.557566554214        115.962837171592        108.627694093475        5917.44647290837        1716.62628280239       -215.884944260268
26         110.40574368682        115.999803091012        108.675907112348       -9455.21418813808       -9352.04442906251        1042.36264634943
27        121.626073430424        118.202799525527          108.6737313846        8911.38067450361        13872.8997901865        130.582497600807
28        121.625823126463        113.810342409458        108.669074839763        11736.3087403232       -17022.0293654815        496.016013026205
29        110.310951602306        118.125762338875        108.607990851579       -10260.2980129014        16006.6807688234        5.17311500850284
30        110.386929332143        113.809533258612        108.679562341883       -20593.2475077785       -33161.7920622022        1635.35786027913
31        112.553883488043        112.569471465894          108.6108706658       -4009.04569591198       -6799.40267175802       -501.681672725064
32        112.592760502936        119.350140323546        108.656511002337       -10276.2262809329        20136.6579590372        636.330922611801
33        119.424656192592        112.666606394271         108.70119665964        14738.4352376969       -24812.9009618409        547.150492095318
34        119.423176526908        119.406918580155        108.706480319766         11724.856205402        20948.1247488735        130.256954102446
35        114.933061730048        112.539735721061        108.627629157181        7763.99889936978       -20003.6683117651       -905.687487065286
36        114.989403432952        119.435700470411         108.69083232427        3505.35274535893        7092.60289144444        553.735893414073
37        116.999655365137        112.552688350855        108.638517441116       -11952.5100026159       -26462.9414254246       -11.2078224269434
38        116.983479036376         119.37613506943        108.629202578845        -17226.837463584        32897.0929547389       -1579.73822326656
39                     100                     100              105.656854                       0                       0                       0
40                     100                     100              102.828427                       0                       0                       0
41                     100                     100                     100                       0                       0                       0
42                     102                     102              105.656854                       0                       0                       0
43                     102                     102              102.828427                       0                       0                       0
44                     102                     102                     100                       0                       0                       0
45                     104                     100              105.656854                       0                       0                       0
46                     104                     100              102.828427                       0                       0                       0
47                     104                     100                     100                       0                       0                       0
48                     106                     102              105.656854                       0                       0                       0
49                     106                     102              102.828427                       0                       0                       0
50                     106                     102                     100                       0                       0                       0
51                     108                     100              105.656854                       0                       0                       0
52                     108                     100              102.828427                       0                       0                       0
53                     108                     100                     100                       0                       0                       0
54                     110                     102              105.656854                       0                       0                       0
55                     110                     102              102.828427                       0                       0                       0
56                     110                     102                     100                       0                       0                       0
57                     112                     100              105.656854                       0                       0                       0
58                     112                     100              102.828427                       0                       0                       0
59                     112                     100                     100                       0                       0                       0
60                     114                     102              105.656854                       0                       0                       0
61                     114                     102              102.828427                       0                       0                       0
62                     114                     102                     100                       0                       0                       0
63                     116                     100              105.656854                       0                       0                       0
64                     116                     100              102.828427                       0                       0                       0
65                     116                     100                     100                       0                       0                       0
66                     118                     102              105.656854                       0                       0                       0
67                     118                     102              102.828427                       0                       0                       0
68                     118                     102                     100                       0                       0                       0
69                     120                     100              105.656854                       0                       0                       0
70                     120                     100              102.828427                       0                       0                       0
71                     120                     100                     100                       0                       0                       0
72                     122                     102              105.656854                       0                       0                       0
73                     122                     102              102.828427                       0                       0                       0
74                     122                     102                     100                       0                       0                       0
75                     124                     100              105.656854                       0                       0                       0
76                     124                     100              102.828427                       0                       0                       0
77                     124                     100                     100                       0                       0                       0
78                     126                     102              105.656854                       0                       0                       0
79                     126                     102              102.828427                       0                       0                       0
80                     126                     102                     100                       0                       0                       0
81                     128                     100              105.656854                       0                       0                       0
82                     128                     100              102.828427                       0                       0                       0
83                     128                     100                     100                       0                       0                       0
84                     130                     102              105.656854                       0                       0                       0
85                     130                     102              102.828427                       0                       0                       0
86                     130                     102                     100                       0                       0                       0
87                     100                     104              105.656854                       0                       0                       0
88                     100                     104              102.828427                       0                       0                       0
89                     100                     104                     100                       0                       0                       0
90                     102                     106              105.656854                       0                       0                       0
91                     102                     106              102.828427                       0                       0                       0
92                     102                     106                     100                       0                       0                       0
93                     104                     104              105.656854                       0                       0                       0
94                     104                     104              102.828427                       0                       0                       0
95                     104                     104                     100                       0                       0                       0
96                     106                     106              105.656854                       0                       0                       0
97                     106                     106              102.828427                       0                       0                       0
98                     106                     106                     100                       0                       0                       0
99                     108                     104              105.656854                       0                       0                       0
100                     108                     104              102.828427                       0                       0                       0
101                     108                     104                     100                       0                       0                       0
102                     110                     106              105.656854                       0                       0                       0
103                     110                     106              102.828427                       0                       0                       0
104                     110                     106                     100                       0                       0                       0
105                     112                     104              105.656854                       0                       0                       0
106                     112                     104              102.828427                       0                       0                       0
107                     112                     104                     100                       0                       0                       0
108                     114                     106              105.656854                       0                       0                       0
109                     114                     106              102.828427                       0                       0                       0
110                     114                     106                     100                       0                       0                       0
111                     116                     104              105.656854                       0                       0                       0
112                     116                     104              102.828427                       0                       0                       0
113                     116                     104                     100                       0                       0                       0
114                     118                     106              105.656854                       0                       0                       0
115                     118                     106              102.828427                       0                       0                       0
116                     118                     106                     100                       0                       0                       0
117                     120                     104              105.656854                       0                       0                       0
118                     120                     104              102.828427                       0                       0                       0
119                     120                     104                     100                       0                       0                       0
120                     122                     106              105.656854                       0                       0                       0
121                     122                     106              102.828427                       0                       0                       0
122                     122                     106                     100                       0                       0                       0
123                     124                     104              105.656854                       0                       0                       0
124                     124                     104              102.828427                       0                       0                       0
125                     124                     104                     100                       0                       0                       0
126                     126                     106              105.656854                       0                       0                       0
127                     126                     106              102.828427                       0                       0                       0
128                     126                     106                     100                       0                       0                       0
129                     128                     104              105.656854                       0                       0                       0
130                     128                     104              102.828427                       0                       0                       0
131                     128                     104                     100                       0                       0                       0
132                     130                     106              105.656854                       0                       0                       0
133                     130                     106              102.828427                       0                       0                       0
134                     130                     106                     100                       0                       0                       0
135                     100                     108              105.656854                       0                       0                       0
136                     100                     108              102.828427                       0                       0                       0
137                     100                     108                     100                       0                       0                       0
138                     102                     110              105.656854                       0                       0                       0
139                     102                     110              102.828427                       0                       0                       0
140                     102                     110                     100                       0                       0                       0
141                     104                     108              105.656854                       0                       0                       0
142                     104                     108              102.828427                       0                       0                       0
143                     104                     108                     100                       0                       0                       0
144                     106                     110              105.656854                       0                       0                       0
145                     106                     110              102.828427                       0                       0                       0
146                     106                     110                     100                       0                       0                       0
147                     108                     108              105.656854                       0                       0                       0
148                     108                     108              102.828427                       0                       0                       0
149                     108                     108                     100                       0                       0                       0
150                     110                     110              105.656854                       0                       0                       0
151                     110                     110              102.828427                       0                       0                       0
152                     110                     110                     100                       0                       0                       0
153                     112                     108              105.656854                       0                       0                       0
154                     112                     108              102.828427                       0                       0                       0
155                     112                     108                     100                       0                       0                       0
156                     114                     110              105.656854                       0                       0                       0
157                     114                     110              102.828427                       0                       0                       0
158                     114                     110                     100                       0                       0                       0
159                     116                     108              105.656854                       0                       0                       0
160                     116                     108              102.828427                       0                       0                       0
161                     116                     108                     100                       0                       0                       0
162                     118                     110              105.656854                       0                       0                       0
163                     118                     110              102.828427                       0                       0                       0
164                     118                     110                     100                       0                       0                       0
165                     120                     108              105.656854                       0                       0                       0
166                     120                     108              102.828427                       0                       0                       0
167                     120                     108                     100                       0                       0                       0
168                     122                     110              105.656854                       0                       0                       0
169                     122                     110              102.828427                       0                       0                       0
170                     122                     110                     100                       0                       0                       0
171                     124                     108              105.656854                       0                       0                       0
172                     124                     108              102.828427                       0                       0                       0
173                     124                     108                     100                       0                       0                       0
174                     126                     110              105.656854                       0                       0                       0
175                     126                     110              102.828427                       0                       0                       0
176                     126                     110                     100                       0                       0                       0
177                     128                     108              105.656854                       0                       0                       0
178                     128                     108              102.828427                       0                       0                       0
179                     128                     108                     100                       0                       0                       0
180                     130                     110              105.656854                       0                       0                       0
181                     130                     110              102.828427                       0                       0                       0
182                     130                     110                     100                       0                       0                       0
183                     100                     112              105.656854                       0                       0                       0
184                     100                     112              102.828427                       0                       0                       0
185                     100                     112                     100                       0                       0                       0
186                     102                     114              105.656854                       0                       0                       0
187                     102                     114              102.828427                       0                       0                       0
188                     102                     114                     100                       0                       0                       0
189                     104                     112              105.656854                       0                       0                       0
190                     104                     112              102.828427                       0                       0                       0
191                     104                     112                     100                       0                       0                       0
192                     106                     114              105.656854                       0                       0                       0
193                     106                     114              102.828427                       0                       0                       0
194                     106                     114                     100                       0                       0                       0
195                     108                     112              105.656854                       0                       0                       0
196                     108                     112              102.828427                       0                       0                       0
197                     108                     112                     100                       0                       0                       0
198                     110                     114              105.656854                       0                       0                       0
199                     110                     114              102.828427                       0                       0                       0
200                     110                     114                     100                       0                       0                       0
201                     112                     112              105.656854                       0                       0                       0