ITEM: TIMESTEP
0
ITEM: NUMBER OF ATOMS
422
ITEM: BOX BOUNDS pp pp pp
0.0000000000000000e+00 3.2000000000000000e+01
0.0000000000000000e+00 3.2000000000000000e+01
0.0000000000000000e+00 3.2000000000000000e+01
ITEM: ATOMS id xu yu zu fx fy fz
1        13.1459321938386        15.9835208156773                 7.75685      -0.060222418749451     0.00830391583261024       0.377070386280472
2        18.8274848400711        15.9892262416344                 7.75685      0.0614828096360317     0.00563092056871198       0.379998316817063
3         17.402344993917         15.987795112765                 7.75685     -0.0643341145906628     0.00827437025481044       0.410851238101087
4         14.571072038949        15.9849519429358                 7.75685      0.0635913030634693      0.0104506527499742       0.414741232436078
5        16.7010751677692        14.7497248501637                 7.75685      -0.410574025041044       0.235550745944785       0.799982828437398
6        15.2748269908674        14.7482926087119                 7.75685       0.424520112328548        0.24745712478031       0.830632412034494
7        15.2723418650276        17.2230222053877                 7.75685        0.41133751110125      -0.249249769483411       0.813162563217148
8        16.6985900414216        17.2244544465825                 7.75685      -0.396605234009093       -0.23475223197374       0.779671459448375
9        14.5177569207574        13.5484462411751                 7.75685       0.682003828069443      -0.594531850630538        2.78473929927935
10        17.4605534827313        13.5514014038861                 7.75685      -0.698785843721145      -0.580735220262661        2.73978178782821
11        14.5128635507729         18.421345651893                 7.75685       0.693477392921682       0.569394497381782        2.85606646725639
12        17.4556601106552        18.4243008141789                 7.75685      -0.714552597699817       0.556525035292342        2.77494918217574
13        13.1273112602358        13.5624445878976                 7.75685       -0.77692191746813      -0.387844313093166         1.9135458375435
14        13.1224488081137        18.4045547622743                 7.75685      -0.793547699672779        0.36418840741686        1.94140048053222
15         18.850968226168        13.5681922935721                 7.75685       0.783943506104372      -0.396167486647468        1.97603595494964
16        18.8461057714963        18.4103024705805                 7.75685       0.796275324645388       0.384555724808074        2.01593774418886
17         12.426795838139        17.1943199436399                 7.75685      -0.233392894887504      -0.126591928226478       0.519397060228671
18        12.4292290587396        14.7712798150634                 7.75685      -0.245157980354674       0.128056218030152       0.532209035359651
19        19.5466211966922        14.7784271122721                 7.75685       0.256935102313617       0.135449519170381       0.546908383858124
20        19.5441879750283        17.2014672429596                 7.75685       0.251875386392244      -0.135834445331591       0.541601021976736
21        20.9551350226241        14.8244350858224                 7.75685      -0.484061705012716       0.379972037082417        1.07639336803702
22        20.9527913622507        17.1582882295758                 7.75685      -0.472286764578315      -0.377710173554196        1.05331010730887
23        11.0206256731611        14.8144588294926                 7.75685       0.498362774008464       0.395847780425899        1.12425356024005
24        11.0182820131454        17.1483119722736                 7.75685       0.474961729288204      -0.395650644741223        1.08314608436663
25        21.5867264607395        15.9919970781177                 7.75685     -0.0227382349841863     0.00270660344049442       0.172546973179521
26        10.3866905744716        15.9807499786644                 7.75685      0.0217920317806326     0.00661791672566181       0.174145719842505
27         21.609196045824        18.1859221409264                 7.75685      -0.286368473355596       0.136129376517077          1.527505897556
28        21.6136022867001        13.7981215696947                 7.75685      -0.282463124405792      -0.147468413020871        1.52394216357162
29        10.3598147507275        18.1746254872963                 7.75685       0.269883584502707       0.130893999826012        1.56332756081265
30        10.3642209902605        13.7868249167297                 7.75685       0.268968797274286      -0.157332748723027        1.53946012335438
31        12.5998668222426        12.6154548000933                 7.75685     -0.0135113839784757     -0.0132863022749163      0.0389852156023653
32        12.5931035005993        19.3504833212092                 7.75685     -0.0147459329773485      0.0138928709474005      0.0399129782736374
33        19.3803135329519        12.6222637346313                 7.75685      0.0143372253654594      -0.014298166806598      0.0399296788186871
34        19.3735502071424         19.357292260389                 7.75685      0.0154159422909424      0.0151571785630038      0.0409685474614842
35        14.9622865728669        12.5689605638796                 7.75685      0.0214117812404568     -0.0332502497260158      0.0572435579920777
36         14.955425108682        19.4017221461408                 7.75685      0.0231922877429643      0.0354240400124765      0.0606469038711728
37        17.0179919240215        12.5710249097393                 7.75685     -0.0212144591480822     -0.0322768051541074      0.0562546084526579
38         17.011130457531        19.4037864905846                 7.75685     -0.0225250113193256      0.0333560243026122      0.0582560241835035
39                       0                       0                5.656854                       0                       0                       0
40                       0                       0                2.828427                       0                       0                       0
41                       0                       0                       0                       0                       0                       0
42                       2                       2                5.656854    7.09177696571736e-10    9.99370216792946e-10    1.78052484244977e-10
43                       2                       2                2.828427                       0                       0                       0
44                       2                       2                       0                       0                       0                       0
45                       4                       0                5.656854                       0                       0                       0
46                       4                       0                2.828427                       0                       0                       0
47                       4                       0                       0                       0                       0                       0
48                       6                       2                5.656854    2.33400526784107e-08    4.72467627152485e-08    8.53685164796749e-09
49                       6                       2                2.828427    1.12696728060153e-09    2.31305085903084e-09    9.87744315103953e-10
50                       6                       2                       0    5.41644728355308e-10     1.1832857764515e-09      8.086089618752e-10
51                       8                       0                5.656854     8.6463537786285e-10    6.13775093098989e-11    4.25248649475157e-10
52                       8                       0                2.828427     9.3442081480121e-10    7.90734513303329e-11    1.27924092092807e-09
53                       8                       0                       0                       0                       0                       0
54                      10                       2                5.656854    1.04622396760684e-07    4.04921866620999e-07    7.49754275472081e-08
55                      10                       2                2.828427    5.03238387692425e-09    1.97116257300637e-08    8.55265576088611e-09
56                      10                       2                       0    3.04637595298442e-09    1.13913395132749e-08    7.90529645079685e-09
57                      12                       0                5.656854    1.76550763832852e-09    4.98250289125111e-10    2.10728794606693e-09
58                      12                       0                2.828427    2.66281175296682e-09    4.64578272703009e-10    8.14008486436803e-09
59                      12                       0                       0    6.71340489062645e-12    3.00875720289169e-12     8.7291742549768e-11
60                      14                       2                5.656854    6.53991651156537e-08    1.00979576539262e-06      1.899994546726e-07
61                      14                       2                2.828427    3.15804168562405e-09    4.78099909699158e-08    2.10037560364033e-08
62                      14                       2                       0    2.14997918262567e-09     2.8575953626122e-08    1.98957474616523e-08
63                      16                       0                5.656854   -9.92253103761342e-12    3.90979661435923e-10    3.15711329019139e-09
64                      16                       0                2.828427   -1.72689872755288e-11    6.37567709891338e-10    1.28694994832415e-08
65                      16                       0                       0   -2.72576534759854e-13    4.96777501221567e-12    1.79541227852004e-10
66                      18                       2                5.656854   -6.69909851795507e-08     1.0039629990837e-06    1.88863528818172e-07
67                      18                       2                2.828427   -3.23403493428767e-09    4.75545000792914e-08    2.08869704158821e-08
68                      18                       2                       0   -2.19491889358275e-09    2.84400611959178e-08    1.97971374886196e-08
69                      20                       0                5.656854   -1.78585622384182e-09    2.20755791221263e-10    2.06622895781114e-09
70                      20                       0                2.828427   -2.68150028540772e-09    3.42118618599879e-10    8.10032258665091e-09
71                      20                       0                       0   -6.99809374555963e-12    1.85227593874761e-12    8.71289117276083e-11
72                      22                       2                5.656854   -1.03618789980545e-07    3.98127967403096e-07     7.3679233163287e-08
73                      22                       2                2.828427   -4.98988179199077e-09    1.94028902802642e-08    8.41435844009988e-09
74                      22                       2                       0   -3.02444859860643e-09    1.12321545202615e-08    7.79080224165106e-09
75                      24                       0                5.656854   -8.57831309744343e-10    3.97166885550334e-11    4.19827307391433e-10
76                      24                       0                2.828427   -9.30431960996789e-10    4.53857997474337e-11    1.26574865190315e-09
77                      24                       0                       0                       0                       0                       0
78                      26                       2                5.656854    -2.2818261224765e-08    4.60263805436793e-08    8.31087256627128e-09
79                      26                       2                2.828427   -1.10333589194334e-09    2.25656186650836e-09    9.62963906348606e-10
80                      26                       2                       0   -5.31435911534892e-10     1.1568265855362e-09    7.89910798678787e-10
81                      28                       0                5.656854                       0                       0                       0
82                      28                       0                2.828427                       0                       0                       0
83                      28                       0                       0                       0                       0                       0
84                      30                       2                5.656854   -6.87132394747199e-10    9.66669099754994e-10    1.72061393910659e-10
85                      30                       2                2.828427                       0                       0                       0
86                      30                       2                       0                       0                       0                       0
87                       0                       4                5.656854    7.24160559391047e-12    3.91257323392626e-10    8.39060346735014e-11
88                       0                       4                2.828427                       0                       0                       0
89                       0                       4                       0                       0                       0                       0
90                       2                       6                5.656854    1.34477699456638e-07    1.23626476736171e-07    3.21866315683576e-08
91                       2                       6                2.828427    6.64414936387624e-09    6.02919832668111e-09    3.69196747171491e-09
92                       2                       6                       0      3.837115223458e-09    3.48955194772225e-09    3.41280184756722e-09
93                       4                       4                5.656854    1.49243280211995e-08    2.04143084802887e-08    4.35632340053113e-09
94                       4                       4                2.828427    2.42497150064988e-08     3.3324238896427e-08    1.66458125335732e-08
95                       4                       4                       0    3.30637720477255e-10    4.59782314371562e-10    3.74217430864026e-10
96                       6                       6                5.656854    4.77263827132633e-06    7.09303207614965e-06     1.8964582010553e-06
97                       6                       6                2.828427    1.82022679743846e-07    2.67081281174398e-07    1.66617337030622e-07
98                       6                       6                       0     9.0002582027741e-08    1.29938325054695e-07    1.26882883454637e-07
99                       8                       4                5.656854     1.8035536713089e-07    4.24716568192476e-07    9.32167007717065e-08
100                       8                       4                2.828427    2.50468631566591e-07    5.85335503495906e-07    2.99869649772237e-07
101                       8                       4                       0    4.30255110646904e-09    1.00650937816166e-08    8.11339317871115e-09
102                      10                       6                5.656854    3.35141340091546e-05    0.000100229352252452    2.83042244847282e-05
103                      10                       6                2.828427    9.86772836517118e-07    2.91077335885509e-06    1.90217461323056e-06
104                      10                       6                       0    3.69313519897054e-07    1.06561448577754e-06    1.07696015139546e-06
105                      12                       4                5.656854    3.74471032471947e-07    2.26515746511899e-06     5.1393865026662e-07
106                      12                       4                2.828427     4.6641511667876e-07    2.74328828233432e-06    1.44834391384901e-06
107                      12                       4                       0     7.2663995984745e-09    4.16630027247261e-08    3.43136155391587e-08
108                      14                       6                5.656854    1.87517568788097e-05    0.000293161844964069    8.56567835727851e-05
109                      14                       6                2.828427    5.46599521753816e-07    7.60244267667181e-06    5.12769478271397e-06
110                      14                       6                       0    2.02720566865746e-07    2.47622221697293e-06    2.57235618387496e-06
111                      16                       4                5.656854   -3.55083839580128e-09    3.41230766184071e-06    7.82083587067531e-07
112                      16                       4                2.828427   -4.23318113643057e-09    4.05395771888119e-06    2.16171021701584e-06
113                      16                       4                       0   -6.34194462458291e-11    6.04055086869466e-08     5.0169856958911e-08
114                      18                       6                5.656854   -1.93107989849663e-05    0.000291338775295404    8.50857494073756e-05
115                      18                       6                2.828427    -5.6123425282809e-07    7.56155655312654e-06    5.09801706345228e-06
116                      18                       6                       0   -2.07556163222423e-07    2.46505748008377e-06    2.55981824937084e-06
117                      20                       4                5.656854   -3.74698243541622e-07    2.23746801503804e-06    5.07380524540114e-07
118                      20                       4                2.828427   -4.67078049325256e-07    2.71302324437946e-06    1.43163015017684e-06
119                      20                       4                       0   -7.28500821709089e-09    4.12642336460448e-08    3.39687097494626e-08
120                      22                       6                5.656854   -3.30957658979855e-05    9.82661613524601e-05    2.77223836247335e-05
121                      22                       6                2.828427   -9.76850554448298e-07    2.86106816607834e-06    1.86798503654157e-06
122                      22                       6                       0   -3.66547557305873e-07    1.05031022048375e-06    1.06061105220336e-06
123                      24                       4                5.656854   -1.77010765209318e-07    4.14804799487135e-07    9.09700905322054e-08
124                      24                       4                2.828427   -2.46290666029717e-07    5.72801828482665e-07    2.93227329290193e-07
125                      24                       4                       0   -4.24154843487889e-09    9.87513596878674e-09    7.95432283867619e-09
126                      26                       6                5.656854   -4.64534113609936e-06    6.88043219933728e-06    1.83755641810868e-06
127                      26                       6                2.828427   -1.77687642106009e-07    2.59858779890008e-07    1.61938613557809e-07
128                      26                       6                       0   -8.79040164358448e-08    1.26730293836612e-07    1.23591876730353e-07
129                      28                       4                5.656854   -1.44960415444757e-08    1.97788397519137e-08    4.21698649568167e-09
130                      28                       4                2.828427   -2.35994481886253e-08    3.23508391504827e-08    1.61453649494868e-08
131                      28                       4                       0   -3.22743037413313e-10    4.47760388563573e-10    3.64064240850794e-10
132                      30                       6                5.656854   -1.29899168850039e-07    1.19315565164962e-07    3.10296560854734e-08
133                      30                       6                2.828427   -6.43584788980973e-09    5.83126287749494e-09    3.56665369690205e-09
134                      30                       6                       0    -3.7293849560423e-09    3.38684331127008e-09    3.30825003193109e-09
135                       0                       8                5.656854    5.37673069094288e-10    1.70039706075702e-08    5.67518360313127e-09
136                       0                       8                2.828427    1.75430661424081e-09    2.61160244576839e-08     2.0690516918279e-08
137                       0                       8                       0    9.09056852661253e-12    3.32079170834521e-10    4.44702854990867e-10
138                       2                      10                5.656854    4.68362198193264e-06     2.3685926058599e-06    1.13638183116355e-06
139                       2                      10                2.828427    1.82925785823657e-07    9.36853923527934e-08    1.03672461144129e-07
140                       2                      10                       0    9.37703381224966e-08    4.83782478841221e-08     8.2281268128398e-08
141                       4                       8                5.656854    1.51495845086159e-06    1.34806017136959e-06    4.64328296857181e-07
142                       4                       8                2.828427    1.75363122427772e-06     1.5549510897209e-06    1.24452141707717e-06
143                       4                       8                       0    2.54971683123949e-08    2.25312881116535e-08    2.80024555830213e-08
144                       6                      10                5.656854     0.00048254712397956    0.000413091165245741    0.000210626033038165
145                       6                      10                2.828427    9.94795573240374e-06    8.45879102596761e-06    9.85463814262573e-06
146                       6                      10                       0    2.61535902539296e-06    2.20377086096036e-06    3.90524195792658e-06
147                       8                       8                5.656854    3.86543058639327e-05    6.56966226456034e-05    2.37807568353923e-05
148                       8                       8                2.828427    2.89812571612806e-05    4.77134775924269e-05    3.99305033194719e-05
149                       8                       8                       0     2.6647703641966e-07     4.2367049181837e-07    5.46474562349005e-07
150                      10                      10                5.656854     0.00536396858245753      0.0105424809645612     0.00589237529820908
151                      10                      10                2.828427    7.11937227781606e-05    0.000139497998839253      0.0001762124044357
152                      10                      10                       0    1.16687574735835e-05    2.14688495758042e-05    4.05123520617804e-05
153                      12                       8                5.656854    0.000112953392068322    0.000530781548202377    0.000210588399936569
154                      12                       8                2.828427    6.18027273774527e-05      0.0002775327345309    0.000249433380977304
155                      12                       8                       0    4.37242996891463e-07    1.84893974465679e-06    2.51676401991962e-06
156                      14                      10                5.656854     0.00154467679481736      0.0196949751525921      0.0113414567970588
157                      14                      10                2.828427    2.69450294713702e-05    0.000353345161771866    0.000489245512217387
158                      14                      10                       0    4.92774703709249e-06    4.65538419708473e-05      9.381474456489e-05
159                      16                       8                5.656854   -8.52164416563136e-07    0.000784448484468133    0.000318716468526471
160                      16                       8                2.828427   -4.53556317549237e-07    0.000397603401390977    0.000365693983565798
161                      16                       8                       0   -3.10920918695852e-09    2.57437018671593e-06    3.57795201539158e-06
162                      18                      10                5.656854    -0.00162322196360652      0.0197350571819384      0.0113722400293967
163                      18                      10                2.828427   -2.79401775163143e-05    0.000352075193565066    0.000487021009683546
164                      18                      10                       0   -5.05594374349201e-06    4.64156529496121e-05    9.34636223122318e-05
165                      20                       8                5.656854   -0.000112947952257134    0.000523562096378733    0.000207476203291428
166                      20                       8                2.828427   -6.19159499544166e-05    0.000274508221022801    0.000246454635584082
167                      20                       8                       0    -4.3864730079514e-07    1.83292722023084e-06    2.49269090701162e-06
168                      22                      10                5.656854     -0.0053063646201541      0.0103719187111864      0.0057854354608713
169                      22                      10                2.828427   -7.05354680263431e-05    0.000137272714116074     0.00017304594746988
170                      22                      10                       0   -1.15993397972268e-05    2.12031959036424e-05    3.99446595615478e-05
171                      24                       8                5.656854   -3.77770454947896e-05    6.38907014262259e-05    2.30907526156345e-05
172                      24                       8                2.828427   -2.84431516779349e-05    4.66106422618203e-05     3.8951908779334e-05
173                      24                       8                       0   -2.62590263023357e-07    4.15653460021156e-07    5.35457497900904e-07
174                      26                      10                5.656854    -0.00046733498413004    0.000399057050759827    0.000202996492161507
175                      26                      10                2.828427    -9.6906441549331e-06    8.21887675477221e-06    9.55556057184301e-06
176                      26                      10                       0   -2.56194374107836e-06    2.15314138442903e-06    3.80889820049173e-06
177                      28                       8                5.656854   -1.46463598055449e-06    1.30073840629653e-06    4.47337500610929e-07
178                      28                       8                2.828427   -1.70173423939861e-06    1.50594981209739e-06    1.20356839335776e-06
179                      28                       8                       0   -2.48521810138163e-08    2.19171428656999e-08    2.72033024549674e-08
180                      30                      10                5.656854   -4.51016079368895e-06    2.28157669023965e-06    1.09245690265115e-06
181                      30                      10                2.828427   -1.76808859421467e-07    9.05289643552781e-08     1.0000545010791e-07
182                      30                      10                       0   -9.10670811649464e-08    4.69325879107172e-08     7.9694923868197e-08
183                       0                      12                5.656854    6.04006191829981e-09    8.36125602650777e-08    6.21029123032782e-08
184                       0                      12                2.828427    8.27964336694136e-09    1.25841089167183e-07    2.14929548566886e-07
185                       0                      12                       0    1.39234003159817e-10     2.4405265740241e-09    6.39469760067503e-09
186                       2                      14                5.656854    2.84153247399056e-05    4.01199800325812e-06    6.89517944613172e-06
187                       2                      14                2.828427    9.65516554776526e-07    1.43839430934365e-07    5.47702906781736e-07
188                       2                      14                       0    4.17006317009552e-07    6.55242521701584e-08     3.6884987193114e-07
189                       4                      12                5.656854    3.84186983861738e-05    1.44501389259964e-05     1.2053125062215e-05
190                       4                      12                2.828427    3.04383609762315e-05    1.18790418152382e-05    2.20793601891131e-05
191                       4                      12                       0    2.93956641771649e-07    1.19041330567034e-07    3.28556541612512e-07
192                       6                      14                5.656854     0.00591428236144917     0.00119811135893069     0.00262359982471966
193                       6                      14                2.828427    8.42087967535376e-05    1.89663594261774e-05    8.53551080003504e-05
194                       6                      14                       0     1.4832705133434e-05    3.69676185468474e-06    2.26950707514297e-05
195                       8                      12                5.656854      0.0023881887368726     0.00188457180431227     0.00168993892695814
196                       8                      12                2.828427    0.000887384625675339    0.000691361644728891     0.00140543110701756
197                       8                      12                       0    3.90458128685735e-06    2.99919173938116e-06    8.83390648621831e-06
198                      10                      14                5.656854      -0.852578255315222      -0.352871088462241        -2.7610464552025
199                      10                      14                2.828427    0.000641077145036259    0.000391413961055564     0.00204244729059987
200                      10                      14                       0    6.38278579311362e-05    3.80891886514486e-05    0.000258976727268467
201                      12                      12                5.656854     -0.0118321657210125     -0.0132590522158894     -0.0330292990352503