ITEM: TIMESTEP
0
ITEM: NUMBER OF ATOMS
422
ITEM: BOX BOUNDS ff ff ff
0.0000000000000000e+00 2.3200000000000000e+02
0.0000000000000000e+00 2.3200000000000000e+02
0.0000000000000000e+00 2.3200000000000000e+02
ITEM: ATOMS id xu yu zu fx fy fz
1        113.144918225087        115.982506846926        108.655840031249    -0.00417056509780268   -0.000719649407539602     0.00713804967515202
2        118.868975301582        116.030716703145        108.698344461511    0.000413843053371059    -0.00227453180734048      0.0031705638868583
3        117.375907372945        115.961357491793        108.630416379028    -0.00118250231728208      0.0046104267703478      0.0161414401545776
4        114.608086595335        116.021966499322        108.693868556386     0.00607226157492665     0.00223285383455973      0.0093622549763982
5        116.736684720345        114.785334402739        108.692463552575       -0.01484943849246      0.0157027304513582      0.0337255611139236
6         115.23479623812        114.708261855965        108.616823247253      0.0313276255210086      0.0198148583389608      0.0564861981004761
7        115.281656549167        117.232336889527         108.66616868414      0.0244050476689938    -0.00854477265920911      0.0379969520083193
8        116.655716174977        117.181580580138        108.613980133555     -0.0178941368321689    -0.00966974927858492      0.0412040821555402
9        114.470742911157        113.501432231575          108.6098399904      0.0327937269109248     -0.0457602906234632       0.186946272052317
10        117.453257992901        113.544105914055        108.649558510169     -0.0507554901813366     -0.0375786685662051       0.158488865954953
11        114.552014833276        118.460496934396        108.696005282503      0.0275669928479052      0.0147887028804073       0.133181953253527
12        117.474623269911        118.443263973434        108.675817159255     -0.0468975525702561      0.0162494331937978       0.149122850523149
13        113.123429919693        113.558563247354        108.652972659457     -0.0299778934345182     -0.0303114888336577       0.110735203208532
14        113.076281969729        118.358387923889        108.610687161615     -0.0378924945592636      0.0130150091459707       0.129976594940328
15        118.802953143712        113.520177211116        108.608838917544      0.0201445822368928     -0.0380433737269748       0.140670815809553
16        118.823258963185        118.387455662269        108.634007191689      0.0174419353149488       0.015477055331564        0.13452039385863
17        112.404973833847        117.172497939348        108.635031995708    -0.00826018785614935     0.00202115140293658      0.0226714313227699
18        112.427827774923        114.769878531247        108.655452716183    -0.00888536856377984     0.00758858328400819      0.0229374642148951
19         119.59070696023         114.82251287581        108.700939763538      0.0156612396285337     0.00585321263686245      0.0135197401112199
20        119.576301845623        117.233581113554        108.688967870594      0.0173688209372956      0.0025136557799843      0.0164090007437444
21        120.947861611972         114.81716167517        108.649580589347       0.130752779612809       0.126217385226526       0.035661211815723
22        120.929458629945         117.13495549727        108.633521267694       0.131582512409421     -0.0239827262948303      0.0357693902877007
23         111.01936179402        114.813194950351        108.655590120859     -0.0150616523735366        0.12712469326855      0.0581021510129054
24        110.968435826886        117.098465786015        108.607007813741     -0.0126121092366054     -0.0213812219457989      0.0676380084713801
25        121.615844827938        116.021115445316        108.685972367198     -0.0557508835835316     -0.0275547469365484     0.00321393661181238
26        110.385128626586        115.979188030779        108.655292052114    -0.00877024424683382     -0.0271850956767291     -0.0103605342086309
27        121.567269342128         118.14399543723        108.614927296304      -0.183087007866013     -0.0459145518657477       0.202220898304061
28        121.655121811812        113.839641094807        108.698373525112      -0.172708158300314     -0.0725053780800626       0.161593615008332
29        110.313576385271        118.128387121839        108.610615634543      0.0268074600049107     -0.0594726975135495       0.183982770988354
30        110.322725635654        113.745329562123        108.615358645393      0.0286386188560498      -0.084760509365026       0.163267538923781
31        112.622524858423        112.638112836274        108.679512036181      -0.016010368627613      0.0241650729871194      0.0104901811167529
32        112.550843035139        119.308222855749        108.614593534539      -0.015205694361767      0.0141636613314319     0.00763665981723958
33        119.370217099354        112.612167301033        108.646757566402      0.0552875060249372      0.0259602060579755     0.00789002256356776
34        119.399497769588        119.383239822834        108.682801562446      0.0580650250235828      0.0124463347558449   -3.05543752793953e-05
35        114.941394820667        112.548068811679          108.6359622478     0.00491411573420468       0.014268903292156   -0.000729997121847306
36        114.949977554702        119.396274592161         108.65140644602     0.00460906839492364      0.0130709112236941    -0.00468201024877333
37        116.995254256967        112.548287242685        108.634116332946      0.0223963431212861      0.0147047742562382   -0.000761202823913452
38        117.042023583156        119.434679616209        108.687747125625      0.0205081976669813      0.0132005561273241    -0.00584707864257545
39                     100                     100              105.656854       0.212198283724256       0.214082413334708      -0.975682575071748
40                     100                     100              102.828427       0.431988540005203       0.430335686473818   -0.000394416042577144
41                     100                     100                     100       0.212159732666726       0.213513942076844       0.976346303761549
42                     102                     102              105.656854      -0.344540865712173      -0.347766839183133      -0.277981807906256
43                     102                     102              102.828427      -0.050865271029691      -0.048159507858315    0.000729000452788215
44                     102                     102                     100      -0.344499296769496      -0.346586975413274       0.276798248646398
45                     104                     100              105.656854      0.0957487790059021       0.960241871632224      -0.808938041649957
46                     104                     100              102.828427     -0.0637272037456326       0.726554228939944   -0.000304020402043802
47                     104                     100                     100      0.0961161550422334       0.959551325134951       0.809412291991375
48                     106                     102              105.656854      -0.149010451474613      -0.515199680009933      -0.381470417574586
49                     106                     102              102.828427       0.142117359765293      0.0667592540409302    0.000438057383190116
50                     106                     102                     100      -0.150034233871538       -0.51390231224966        0.38083487253078
51                     108                     100              105.656854       0.109394540032241        1.06020947872634      -0.801913476052651
52                     108                     100              102.828427      -0.111402111138753       0.639772079790034    0.000231545566700545
53                     108                     100                     100       0.110481295488822        1.06010369200145       0.801465569266709
54                     110                     102              105.656854      -0.142813718004142      -0.581978840843102      -0.373820252320451
55                     110                     102              102.828427       0.147643979027442       0.134883050765602   -0.000932169322049945
56                     110                     102                     100      -0.145311772779395      -0.582651330721408       0.375447766168824
57                     112                     100              105.656854       0.131463962663529        1.10836152721555      -0.810702583315979
58                     112                     100              102.828427      -0.135277006842893         0.5894978845243     0.00117952311451094
59                     112                     100                     100       0.132691295989515        1.10982277565629       0.808690215835021
60                     114                     102              105.656854      -0.163498271350154      -0.618526303735298      -0.361303626914347
61                     114                     102              102.828427       0.168485697143206        0.17463043811506    -0.00269973458118051
62                     114                     102                     100      -0.165087580235539      -0.622561609170008       0.365774540051242
63                     116                     100              105.656854       0.166475081685836        1.14367396487171      -0.821271051535471
64                     116                     100              102.828427      -0.170669826055323       0.552459897209214     0.00172098116986751
65                     116                     100                     100       0.166507462785742        1.14614304068613       0.818382113340568
66                     118                     102              105.656854      -0.209461645920044      -0.650535712282956      -0.347858410963923
67                     118                     102              102.828427       0.214313714307101       0.207734271925741    -0.00275245041005212
68                     118                     102                     100      -0.207993169818507      -0.654669682866278       0.352396972564054
69                     120                     100              105.656854       0.223261798042956        1.18225865713771      -0.835274427675552
70                     120                     100              102.828427      -0.228669257526547       0.513143688856511     0.00122387902530007
71                     120                     100                     100       0.222073052720288        1.18379969357322       0.833202051721208
72                     122                     102              105.656854      -0.288938371220256      -0.687752837890178       -0.33027073125901
73                     122                     102              102.828427       0.293689012122621       0.244143728009383    -0.00104522299978012
74                     122                     102                     100      -0.286459144472546      -0.688632052518031       0.332045035561886
75                     124                     100              105.656854       0.326470214655197         1.2366246134827      -0.852110101514482
76                     124                     100              102.828427      -0.323091290523117       0.459581856739001    0.000286246583945693
77                     124                     100                     100       0.325372606040271        1.23661065901566       0.851587514092032
78                     126                     102              105.656854      -0.461847903844818      -0.727696950237287       -0.33203993550594
79                     126                     102              102.828427       0.397363843683609        0.28168688606875    0.000348779554198433
80                     126                     102                     100      -0.460763298955379      -0.726541033561201       0.331521574258452
81                     128                     100              105.656854       0.708345142545946        1.34073452433264      -0.754727212167346
82                     128                     100              102.828427      -0.280994961585031       0.396075123852093   -0.000268169568617683
83                     128                     100                     100       0.707948217169492        1.34009518953107       0.755152183807799
84                     130                     102              105.656854       -1.34066597969331       -0.70879913859903      -0.755440071002491
85                     130                     102              102.828427      -0.395793257411424       0.281054056306271    0.000688072821296548
86                     130                     102                     100       -1.34065720627659      -0.707668856727362       0.754310317735701
87                     100                     104              105.656854       0.959214720454166       0.100204874719403      -0.808413646035227
88                     100                     104              102.828427       0.727578250727519     -0.0673653360418214     -0.0010968485359312
89                     100                     104                     100       0.958596730802821      0.0988218163187959       0.810219435922146
90                     102                     106              105.656854      -0.514038890689878       -0.15741727472223      -0.382843394346426
91                     102                     106              102.828427       0.065385510044646       0.148416244658406     0.00229068956124742
92                     102                     106                     100        -0.5125396803453      -0.154261687963723       0.379188588148932
93                     104                     104              105.656854       0.247254679267379       0.253269026696288      -0.388467730028998
94                     104                     104              102.828427      -0.179990948086955      -0.184679426050222    -0.00142841391244846
95                     104                     104                     100       0.247310788788556       0.250618924596699       0.390707743614141
96                     106                     106              105.656854      -0.233190547109771      -0.245784400372535      -0.504854226671621
97                     106                     106              102.828427        0.22520819420613       0.233829538320393      0.0029157877898746
98                     106                     106                     100      -0.234022259320234      -0.239331212259185       0.500278589218945
99                     108                     104              105.656854       0.172726978677746       0.339082075404919      -0.375180618024658
100                     108                     104              102.828427       -0.17683760353668      -0.269035146476764   -0.000406589075128875
101                     108                     104                     100       0.175842786077908        0.33685196172281        0.37568440125296
102                     110                     106              105.656854      -0.180412897908618      -0.293720225539332      -0.490141628701579
103                     110                     106              102.828427       0.191205129889733        0.28586231965048   -0.000911619256766866
104                     110                     106                     100       -0.19033726985481      -0.291857424690617       0.491825083314497
105                     112                     104              105.656854       0.166043315960881       0.379179568494671      -0.391000391567148
106                     112                     104              102.828427      -0.173469476868531      -0.314345754363297     0.00311290140298253
107                     112                     104                     100       0.171320956819347        0.38333784692398        0.38579750432913
108                     114                     106              105.656854       -0.18670226747545      -0.306476182772529      -0.466475083488599
109                     114                     106              102.828427       0.196561273583272       0.311185577753649    -0.00887264762350749
110                     114                     106                     100      -0.194596963701468       -0.32203661546732       0.481764766365996
111                     116                     104              105.656854       0.197874543227444       0.404331843502421      -0.406629390562421
112                     116                     104              102.828427      -0.203146550593657      -0.343581386398755     0.00554813975819279
113                     116                     104                     100       0.198020278867592       0.413614792015698       0.397528345525724
114                     118                     106              105.656854      -0.241477274882194      -0.328031371592449      -0.450441897367947
115                     118                     106              102.828427       0.243528984529536       0.333721967224408    -0.00912494562922801
116                     118                     106                     100      -0.234175441761523      -0.344079424350879       0.466035894442092
117                     120                     104              105.656854       0.260987519743193       0.435223942001446       -0.42179696226444
118                     120                     104              102.828427      -0.265209436216211      -0.372439792202762     0.00331693895188759
119                     120                     104                     100       0.255876885729539       0.439779965140823        0.41634069398357
120                     122                     106              105.656854      -0.319735401157324      -0.362278435852806       -0.43807311228936
121                     122                     106              102.828427       0.320609163068274       0.357353005815535    -0.00144659428036288
122                     122                     106                     100      -0.309814239767661      -0.361509255929151       0.440436880142864
123                     124                     104              105.656854       0.368623236432534       0.463738280211684      -0.438561175569736
124                     124                     104              102.828427      -0.362881003608855      -0.397791077576941   -0.000182172326171323
125                     124                     104                     100        0.36540621321349       0.461910752316298       0.438782717352073
126                     126                     106              105.656854      -0.466558135752599      -0.369365954142327      -0.441680714070599
127                     126                     106              102.828427       0.401439520674632       0.361601607518059     0.00258920691974274
128                     126                     106                     100      -0.465355075941494      -0.363420863470167       0.437504158057606
129                     128                     104              105.656854       0.728154453321614        0.46247037059261      -0.330607218812592
130                     128                     104              102.828427      -0.282786009812052      -0.397125002103543    -0.00131582627804686
131                     128                     104                     100        0.72796489025662       0.459971861186507       0.332705985835551
132                     130                     106              105.656854       -1.23667016484616      -0.328499297521172      -0.853706273464216
133                     130                     106              102.828427      -0.458681096794562       0.324001547745766     0.00218873623319717
134                     130                     106                     100       -1.23799969951744      -0.325436958134194       0.850170899751954
135                     100                     108              105.656854        1.06330767676253       0.116851139188308      -0.799905152045308
136                     100                     108              102.828427       0.638002639698402      -0.117072710689612    -0.00258624281128931
137                     100                     108                     100        1.06075745549304       0.114336448134255       0.804083316355729
138                     102                     110              105.656854      -0.590574648600639      -0.155956790812341      -0.379274202377104
139                     102                     110              102.828427        0.13906937357975       0.156533958161209     0.00562374527833879
140                     102                     110                     100      -0.583940295651673      -0.150631081981066       0.370301812558765
141                     104                     108              105.656854       0.338805499857387       0.190228210801413      -0.370851030822274
142                     104                     108              102.828427       -0.26729735201144      -0.188123502497736    -0.00517615037405551
143                     104                     108                     100       0.334818345208442       0.182350068881899       0.379128405613081
144                     106                     110              105.656854      -0.299515853847328      -0.220365270746126      -0.507507618030698
145                     106                     110              102.828427       0.283522305760361       0.210864365681594      0.0121633744680385
146                     106                     110                     100      -0.288505371393544      -0.199540865022224        0.48487234194724
147                     108                     108              105.656854       0.221694784355227       0.252569185945513      -0.357993223334903
148                     108                     108              102.828427      -0.228531758315101      -0.244952759168715    -0.00559586378378278
149                     108                     108                     100       0.227741250789832       0.236016310660018       0.368459955743835
150                     110                     110              105.656854      -0.177963370407221       -0.26068027734743      -0.493446991080518
151                     110                     110              102.828427       0.214857567511648       0.243678972026379     0.00604920525742274
152                     110                     110                     100      -0.221186782426633      -0.232598478526651       0.474842146181631
153                     112                     108              105.656854       0.173522444717858       0.257158316202051      -0.393313331445687
154                     112                     108              102.828427      -0.196941047169954      -0.269445338528995     0.00804815779309644
155                     112                     108                     100        0.20064572782544        0.26728253776809       0.378043618853345
156                     114                     110              105.656854      -0.174708203319279      -0.183749538102279      -0.383873728447505
157                     114                     110              102.828427        0.20752434035206       0.246131403113254     -0.0272247442864662
158                     114                     110                     100      -0.212728563557242      -0.249160634675742       0.470140681321263
159                     116                     108              105.656854       0.219207169721921       0.248812423686347      -0.426404101423343
160                     116                     108              102.828427      -0.225467761906803      -0.281248058926832      0.0197760107756233
161                     116                     108                     100       0.219862914316494       0.285811610728183       0.388505150237147
162                     118                     110              105.656854      -0.284198476190468      -0.193411268403491      -0.365506027902392
163                     118                     110              102.828427       0.266194025485956       0.257049873260096     -0.0281814604663908
164                     118                     110                     100      -0.249263037457844      -0.260051700419813       0.453204363571934
165                     120                     108              105.656854         0.3001226241563       0.288253004730476      -0.429048468759065
166                     120                     108              102.828427      -0.290505072144769      -0.303178585267118     0.00904568442535704
167                     120                     108                     100       0.274017810441048       0.300595130257985       0.412312825831354
168                     122                     110              105.656854       -0.35932057920864      -0.288189736374176      -0.432414603701044
169                     122                     110              102.828427       0.334740535544832       0.277169709038464     0.00370122995167046
170                     122                     110                     100      -0.315444008748092      -0.265914654335541       0.419321003875472
171                     124                     108              105.656854       0.376295184742338       0.320040885169985      -0.431094012215428
172                     124                     108              102.828427      -0.368847744886858      -0.315977355366907     -0.0046356117698094
173                     124                     108                     100       0.369279395201946       0.305357857950335       0.440212246141348
174                     126                     110              105.656854      -0.438220281457732       -0.27523585488209      -0.435468808681397
175                     126                     110              102.828427       0.381041014596211       0.268229982581069      0.0112111602637135
176                     126                     110                     100      -0.447222146713744      -0.255365698765047       0.414117707803947
177                     128                     108              105.656854       0.688487755009108       0.293938736042424      -0.326176700530758
178                     128                     108              102.828427      -0.246965211511775      -0.295379860018354    -0.00486865681199146
179                     128                     108                     100       0.691923099324857       0.286358721106298       0.334103685770785
180                     130                     110              105.656854        -1.1794859234929      -0.228305102475124      -0.839324578084038
181                     130                     110              102.828427      -0.512750854527465       0.231260523358822     0.00545102359475138
182                     130                     110                     100       -1.18574198797833      -0.222997261712526       0.830513432219984
183                     100                     112              105.656854        1.11889408116848       0.138180607573753      -0.806341057125739
184                     100                     112              102.828427        0.58304115567537      -0.140147249764692    -0.00459472794428572
185                     100                     112                     100        1.11295836157068        0.13581278436294       0.813701361518833
186                     102                     114              105.656854      -0.639955900843895      -0.170362023255352      -0.371675304106033
187                     102                     114              102.828427       0.185612746639347       0.172979453648644     0.00902681868603863
188                     102                     114                     100      -0.626851670365756      -0.167662967816428       0.357147836563254
189                     104                     112              105.656854       0.403007591882958       0.187765897817131      -0.374105284345085
190                     104                     112              102.828427      -0.322865085331861      -0.185783929824195     -0.0124759122957771
191                     104                     112                     100       0.385108202935678       0.177614907765556       0.395494125793459
192                     106                     114              105.656854      -0.358613421196007      -0.207930685164049      -0.518883922556225
193                     106                     114              102.828427       0.322554501919072       0.207628292851269        0.02449523538713
194                     106                     114                     100      -0.322615831567043      -0.199592604335815       0.465971996430365
195                     108                     112              105.656854       0.286431757333528       0.259572991950145      -0.302084454017428
196                     108                     112              102.828427      -0.262298549083594      -0.223550220037714     -0.0234790643683769
197                     108                     112                     100       0.261143512428072       0.211019212573543       0.389919422090457
198                     110                     114              105.656854      -0.150217578919087      -0.185639466188561      -0.764689469607465
199                     110                     114              102.828427       0.222445728472127       0.225159998950239      0.0174258667265706
200                     110                     114                     100      -0.239002893447254      -0.219921990440475       0.456076618975957
201                     112                     112              105.656854      0.0899482430445004       0.229222638203298      -0.425895110625423