ITEM: TIMESTEP
0
ITEM: NUMBER OF ATOMS
422
ITEM: BOX BOUNDS ff ff ff
0.0000000000000000e+00 2.3200000000000000e+02
0.0000000000000000e+00 2.3200000000000000e+02
0.0000000000000000e+00 2.3200000000000000e+02
ITEM: ATOMS id xu yu zu fx fy fz
1        113.126061326025        115.963649947863        108.636983132186   -0.000111327140307845   -0.000315491218788624      0.0118611066573664
2          118.8377757731        115.999517174664        108.667144933029    0.000414098703996397    0.000996156191688785      0.0568720519812003
3        117.435687660029        116.021137778877        108.690196666112    0.000661448938953343    -0.00358092428863344     -0.0707754214747948
4        114.567786444316        115.981666348303        108.653568405367     4.1237879853246e-05   -0.000507451013436543    -0.00183275441944082
5         116.72758849053        114.776238172924         108.68336732276    0.000195152583630426     0.00187891558442399     -0.0678094200247835
6        115.244730873504        114.718196491349        108.626757882637   -0.000200794540454753     0.00128458928235205      0.0912172413137363
7        115.317866714359         117.26854705472        108.702378849332    -0.00418517749014823    0.000633310525172326      -0.085410702525533
8        116.652776535802        117.178640940963        108.611040494381     0.00155838821504763    0.000559067340025546       0.163631215763302
9        114.542267509133        113.572956829551        108.681364588376   -4.70751382500288e-05    -0.00152834181711715      -0.106023955159449
10        117.419207103439        113.510055024593        108.615507620707     0.00036182057256938    -0.00112502315806045      0.0922207569190792
11        114.544335662749        118.452817763869        108.688326111976   -0.000705325282011512    -0.00175705209739251     -0.0148286339599418
12        117.495483157212        118.464123860736        108.696677046557     0.00149381686003825   -0.000547170364799188      -0.144972101821541
13        113.097535729035        113.532669056697        108.627078468799    -0.00114648141681466     0.00215620832631451      0.0663063669581462
14        113.147025642575        118.429131596736        108.681430834461    0.000683849020799698   -0.000363427799216713      -0.012209650044382
15        118.868973449864        113.586197517268        108.674859223696     0.00150682567760126    0.000105984777456098     -0.0252333190445587
16        118.833832867156         118.39802956624         108.64458109566     0.00181536978754783     0.00074350702558541      0.0875678870504217
17        112.443561227007        117.211085332508        108.673619388868    -0.00041524322665229    0.000428596938586365    -0.00448687791870586
18        112.394583504928        114.736634261252        108.622208446189     0.00652040714247411     0.00418541666659601       0.165964266066047
19        119.579178781798        114.810984697377        108.689411585105    -0.00825544795216783     0.00474592455675091      -0.188681016463211
20        119.567521474052        117.224800741983        108.680187499023   -2.96423172517174e-05   -0.000338066783526891    -0.00798770392704489
21        120.921342700987        114.790642764185        108.623061678363     0.00929189003326958     -0.0147925983556317       0.447935967134674
22        120.990576648774        117.196073516099        108.694639286523    0.000291743529650517   -0.000662936723281477     -0.0876588575321136
23         111.03547383968        114.829306996011        108.671702166519    -0.00406946669917455     -0.0126116025971631       -0.48787251017145
24        111.005833688065        117.135863647194         108.64440567492    0.000720131525262079    0.000462552262248672     -0.0315566886996483
25        121.627351862428        116.032622479806        108.697479401689   -0.000633382186328113     0.00819000327135438     -0.0999485576302163
26        110.337554776461        115.931614180654        108.607718201989    -0.00113312431778298     0.00859134550519924       0.173501575183176
27        121.634449523537         118.21117561864        108.682107477713   -2.35129902899784e-05    0.000429524516821119      0.0335842869808156
28        121.565195698906        113.749714981901        108.608447412206   -0.000891056420468749     0.00167784162015872      -0.158764133582507
29        110.344965351737        118.159776088306         108.64200460101   -0.000326217132255273   -0.000178080746525581      0.0138469213494041
30        110.369027964596        113.791631891065        108.661660974335    -0.00155433808789172   -0.000525582461605795       0.157477918383181
31        112.627440083753        112.643028061604        108.684427261511   -0.000172416911248438    -0.00143398820175782     -0.0236585125121108
32        112.560684684291        119.318064504901        108.624435183692   -0.000405880401383963    0.000557397613758606      0.0128689360573875
33        119.395547983343        112.637498185023        108.672088450392   -0.000179474038265149   -0.000121591082638446     0.00752386379019207
34        119.378877196122        119.362619249369         108.66218098898    3.20974809441675e-05    0.000312499691554186     -0.0181210489526283
35        114.947257634623        112.553931625635        108.641825061756    0.000629726210119339   -0.000783303050047859       0.026637608924362
36        114.908592310029        119.354889347488        108.610021201347    0.000607862021667851     0.00141061516950825      0.0190779049469251
37        117.007868749061        112.560901734779         108.64673082504   -0.000734114980387014   -0.000704986262296169     -0.0311021786152861
38        116.974555551824        119.367211584877        108.620279094293    -0.00160636751389031     0.00252816115636434      0.0408381690199298
39                     100                     100              105.656854                       0                       0                       0
40                     100                     100              102.828427                       0                       0                       0
41                     100                     100                     100                       0                       0                       0
42                     102                     102              105.656854                       0                       0                       0
43                     102                     102              102.828427                       0                       0                       0
44                     102                     102                     100                       0                       0                       0
45                     104                     100              105.656854                       0                       0                       0
46                     104                     100              102.828427                       0                       0                       0
47                     104                     100                     100                       0                       0                       0
48                     106                     102              105.656854                       0                       0                       0
49                     106                     102              102.828427                       0                       0                       0
50                     106                     102                     100                       0                       0                       0
51                     108                     100              105.656854                       0                       0                       0
52                     108                     100              102.828427                       0                       0                       0
53                     108                     100                     100                       0                       0                       0
54                     110                     102              105.656854                       0                       0                       0
55                     110                     102              102.828427                       0                       0                       0
56                     110                     102                     100                       0                       0                       0
57                     112                     100              105.656854                       0                       0                       0
58                     112                     100              102.828427                       0                       0                       0
59                     112                     100                     100                       0                       0                       0
60                     114                     102              105.656854                       0                       0                       0
61                     114                     102              102.828427                       0                       0                       0
62                     114                     102                     100                       0                       0                       0
63                     116                     100              105.656854                       0                       0                       0
64                     116                     100              102.828427                       0                       0                       0
65                     116                     100                     100                       0                       0                       0
66                     118                     102              105.656854                       0                       0                       0
67                     118                     102              102.828427                       0                       0                       0
68                     118                     102                     100                       0                       0                       0
69                     120                     100              105.656854                       0                       0                       0
70                     120                     100              102.828427                       0                       0                       0
71                     120                     100                     100                       0                       0                       0
72                     122                     102              105.656854                       0                       0                       0
73                     122                     102              102.828427                       0                       0                       0
74                     122                     102                     100                       0                       0                       0
75                     124                     100              105.656854                       0                       0                       0
76                     124                     100              102.828427                       0                       0                       0
77                     124                     100                     100                       0                       0                       0
78                     126                     102              105.656854                       0                       0                       0
79                     126                     102              102.828427                       0                       0                       0
80                     126                     102                     100                       0                       0                       0
81                     128                     100              105.656854                       0                       0                       0
82                     128                     100              102.828427                       0                       0                       0
83                     128                     100                     100                       0                       0                       0
84                     130                     102              105.656854                       0                       0                       0
85                     130                     102              102.828427                       0                       0                       0
86                     130                     102                     100                       0                       0                       0
87                     100                     104              105.656854                       0                       0                       0
88                     100                     104              102.828427                       0                       0                       0
89                     100                     104                     100                       0                       0                       0
90                     102                     106              105.656854                       0                       0                       0
91                     102                     106              102.828427                       0                       0                       0
92                     102                     106                     100                       0                       0                       0
93                     104                     104              105.656854                       0                       0                       0
94                     104                     104              102.828427                       0                       0                       0
95                     104                     104                     100                       0                       0                       0
96                     106                     106              105.656854                       0                       0                       0
97                     106                     106              102.828427                       0                       0                       0
98                     106                     106                     100                       0                       0                       0
99                     108                     104              105.656854                       0                       0                       0
100                     108                     104              102.828427                       0                       0                       0
101                     108                     104                     100                       0                       0                       0
102                     110                     106              105.656854                       0                       0                       0
103                     110                     106              102.828427                       0                       0                       0
104                     110                     106                     100                       0                       0                       0
105                     112                     104              105.656854                       0                       0                       0
106                     112                     104              102.828427                       0                       0                       0
107                     112                     104                     100                       0                       0                       0
108                     114                     106              105.656854                       0                       0                       0
109                     114                     106              102.828427                       0                       0                       0
110                     114                     106                     100                       0                       0                       0
111                     116                     104              105.656854                       0                       0                       0
112                     116                     104              102.828427                       0                       0                       0
113                     116                     104                     100                       0                       0                       0
114                     118                     106              105.656854                       0                       0                       0
115                     118                     106              102.828427                       0                       0                       0
116                     118                     106                     100                       0                       0                       0
117                     120                     104              105.656854                       0                       0                       0
118                     120                     104              102.828427                       0                       0                       0
119                     120                     104                     100                       0                       0                       0
120                     122                     106              105.656854                       0                       0                       0
121                     122                     106              102.828427                       0                       0                       0
122                     122                     106                     100                       0                       0                       0
123                     124                     104              105.656854                       0                       0                       0
124                     124                     104              102.828427                       0                       0                       0
125                     124                     104                     100                       0                       0                       0
126                     126                     106              105.656854                       0                       0                       0
127                     126                     106              102.828427                       0                       0                       0
128                     126                     106                     100                       0                       0                       0
129                     128                     104              105.656854                       0                       0                       0
130                     128                     104              102.828427                       0                       0                       0
131                     128                     104                     100                       0                       0                       0
132                     130                     106              105.656854                       0                       0                       0
133                     130                     106              102.828427                       0                       0                       0
134                     130                     106                     100                       0                       0                       0
135                     100                     108              105.656854                       0                       0                       0
136                     100                     108              102.828427                       0                       0                       0
137                     100                     108                     100                       0                       0                       0
138                     102                     110              105.656854                       0                       0                       0
139                     102                     110              102.828427                       0                       0                       0
140                     102                     110                     100                       0                       0                       0
141                     104                     108              105.656854                       0                       0                       0
142                     104                     108              102.828427                       0                       0                       0
143                     104                     108                     100                       0                       0                       0
144                     106                     110              105.656854                       0                       0                       0
145                     106                     110              102.828427                       0                       0                       0
146                     106                     110                     100                       0                       0                       0
147                     108                     108              105.656854                       0                       0                       0
148                     108                     108              102.828427                       0                       0                       0
149                     108                     108                     100                       0                       0                       0
150                     110                     110              105.656854                       0                       0                       0
151                     110                     110              102.828427                       0                       0                       0
152                     110                     110                     100                       0                       0                       0
153                     112                     108              105.656854                       0                       0                       0
154                     112                     108              102.828427                       0                       0                       0
155                     112                     108                     100                       0                       0                       0
156                     114                     110              105.656854                       0                       0                       0
157                     114                     110              102.828427                       0                       0                       0
158                     114                     110                     100                       0                       0                       0
159                     116                     108              105.656854                       0                       0                       0
160                     116                     108              102.828427                       0                       0                       0
161                     116                     108                     100                       0                       0                       0
162                     118                     110              105.656854                       0                       0                       0
163                     118                     110              102.828427                       0                       0                       0
164                     118                     110                     100                       0                       0                       0
165                     120                     108              105.656854                       0                       0                       0
166                     120                     108              102.828427                       0                       0                       0
167                     120                     108                     100                       0                       0                       0
168                     122                     110              105.656854                       0                       0                       0
169                     122                     110              102.828427                       0                       0                       0
170                     122                     110                     100                       0                       0                       0
171                     124                     108              105.656854                       0                       0                       0
172                     124                     108              102.828427                       0                       0                       0
173                     124                     108                     100                       0                       0                       0
174                     126                     110              105.656854                       0                       0                       0
175                     126                     110              102.828427                       0                       0                       0
176                     126                     110                     100                       0                       0                       0
177                     128                     108              105.656854                       0                       0                       0
178                     128                     108              102.828427                       0                       0                       0
179                     128                     108                     100                       0                       0                       0
180                     130                     110              105.656854                       0                       0                       0
181                     130                     110              102.828427                       0                       0                       0
182                     130                     110                     100                       0                       0                       0
183                     100                     112              105.656854                       0                       0                       0
184                     100                     112              102.828427                       0                       0                       0
185                     100                     112                     100                       0                       0                       0
186                     102                     114              105.656854                       0                       0                       0
187                     102                     114              102.828427                       0                       0                       0
188                     102                     114                     100                       0                       0                       0
189                     104                     112              105.656854                       0                       0                       0
190                     104                     112              102.828427                       0                       0                       0
191                     104                     112                     100                       0                       0                       0
192                     106                     114              105.656854                       0                       0                       0
193                     106                     114              102.828427                       0                       0                       0
194                     106                     114                     100                       0                       0                       0
195                     108                     112              105.656854                       0                       0                       0
196                     108                     112              102.828427                       0                       0                       0
197                     108                     112                     100                       0                       0                       0
198                     110                     114              105.656854                       0                       0                       0
199                     110                     114              102.828427                       0                       0                       0
200                     110                     114                     100                       0                       0                       0
201                     112                     112              105.656854                       0                       0                       0