ITEM: TIMESTEP
0
ITEM: NUMBER OF ATOMS
422
ITEM: BOX BOUNDS pp pp pp
0.0000000000000000e+00 3.2000000000000000e+01
0.0000000000000000e+00 3.2000000000000000e+01
0.0000000000000000e+00 3.2000000000000000e+01
ITEM: ATOMS id xu yu zu fx fy fz
1        13.1048884830676        15.9424771049063        8.61580628922902        6.06010843792282        5.68820163221556        1.48090936628573
2        18.8350259994375        15.9967674010008        8.66439115936643          1.102069785172       0.428538710709698        0.17090345982969
3        17.4241396435502        16.0095897623982        8.67864464963322       -2.09355444867938       -2.24210289534032      -0.508904172772631
4         14.601052899319        16.0149328033058           8.68683086037       -2.42562103337782       -2.59776066408574      -0.561909958560279
5        16.6747483999636        14.7233980823581         8.6305232321944        4.91918047511185         4.8212962145309        1.03625479994588
6        15.3175192172222        14.7909848350666        8.69954222635473       -3.84719186806218       -3.15067694759544      -0.571135253606579
7        15.2900804396976        17.2407607800578        8.67458857467003       -1.18381630117322       -1.11618214565061        -0.2715182736422
8        16.7220385133277        17.2479029184886         8.6802984719061      -0.654277988159492      -0.168231372837967      0.0532511097406566
9        14.5358154214694        13.5665047418872        8.67490850071206       -1.03628874870568     -0.0927184050886574     -0.0695407758344675
10        17.4630580196953        13.5539059408501        8.65935453696401       -2.11182801249812       -2.68025284875636      -0.457229111409713
11        14.4664993212439         18.374981422364        8.61048577047097        5.72644554839192        5.94449093031807       0.918692810945789
12        17.4645694898209        18.4332101933445        8.66575937916565      -0.321582751336975      0.0124918739701075     -0.0339021332825742
13        13.1058880766719        13.5410214043338        8.63542681643619        1.88333319718965        1.01876498527884        0.29767483269665
14        13.1372829486704        18.4193889028311        8.67168414055675      -0.822847053022408      -0.234451264695603     -0.0415556517068524
15         18.847680665861        13.5649047332651        8.65356243969297       -1.49639931909956       -1.69395380892842      -0.230450422236642
16        18.8344498773881        18.3986465764723        8.64519410589185        2.65750355558839        3.11889905943961       0.529920631702115
17        12.4727311126523        17.2402552181533        8.70278527451332       -4.98515541995365       -5.27916395735906       -1.18278387724416
18        12.4194004059419        14.7614511622658        8.64702134720233       -2.73775497924442       -2.80179320953899      -0.899898301237736
19        19.5054737260209        14.7372796416007        8.61570252932862        2.53822465189206        2.33610385451321       0.348233484912231
20        19.5935891533203        17.2508684212516        8.70625117829202       -3.49257071127739       -4.42911545297184      -0.609812682679874
21        20.9123041432672        14.7816042064656        8.61401912064319        3.13438460188542        4.52376925186149        0.72066881968415
22        20.9751033713399         17.180600238665        8.67916200908922       -3.36967434786774       -4.49309084397484      -0.243375053376642
23        10.9820525087495         14.775885665081        8.61827683558845        7.45206713250682        8.95059482899726       0.970265719094983
24        11.0356632816136        17.1656932407419        8.67423126846822        2.91840522713648        2.54368148504305       0.710067343880475
25        21.5689484984661        15.9742191158443        8.63907203772657       -1.12537506422494       0.276229085198222      -0.141534573302709
26         10.415839193848        16.0098985980409        8.68599861937643       -3.09636406303759       -3.01819115946452      -0.714281539520431
27        21.5802489311726        18.1569750262749        8.62790288534852        3.63241975198367        3.50984278992635     -0.0223746745082195
28        21.6536553019858        13.8381745849804        8.69690301528567       -1.43872840265958       -2.63329528087529      -0.325220128708638
29        10.3977854401288        18.2125961766976        8.69482068940134      -0.566648398334549      -0.881885645700316     -0.0585885558909072
30        10.3934308577839        13.8160347842531        8.68605986752341       -4.54455310269527       -4.79100570819865       0.074696139584815
31        12.5651717197026        12.5807596975532        8.62215489745993       0.413541377200675       0.415779223375751     -0.0113116292437984
32        12.6155419056094        19.3729217262193        8.67928840501007       0.137209649041241     -0.0369382881869964      0.0328292046953775
33        19.3495718477882        12.5915220494676        8.62610831483633       0.174233957279457       0.479387460182829      0.0650354223631793
34        19.3822027363783        19.3659447896248        8.66550252923586      -0.669327631083804       -0.60604540507761      -0.139646322977501
35        14.9595871133294        12.5662611043421        8.65415054046256     -0.0296392998801048       0.419019660486218      0.0581244595515009
36        14.9915843005559        19.4378813380148        8.69300919187396       -2.01899898331348       -2.92726675733779      -0.539341721581347
37        16.9757407704103        12.5287737561281        8.61459884638881        1.27803441957167        1.53558063496575       0.207174679839549
38        17.0281923357203        19.4208483687738        8.67391187818927       0.041036159813236      -0.148549619347896     -0.0403874714288588
39                       0                       0                5.656854                       0                       0                       0
40                       0                       0                2.828427                       0                       0                       0
41                       0                       0                       0                       0                       0                       0
42                       2                       2                5.656854                       0                       0                       0
43                       2                       2                2.828427                       0                       0                       0
44                       2                       2                       0                       0                       0                       0
45                       4                       0                5.656854                       0                       0                       0
46                       4                       0                2.828427                       0                       0                       0
47                       4                       0                       0                       0                       0                       0
48                       6                       2                5.656854                       0                       0                       0
49                       6                       2                2.828427                       0                       0                       0
50                       6                       2                       0                       0                       0                       0
51                       8                       0                5.656854                       0                       0                       0
52                       8                       0                2.828427                       0                       0                       0
53                       8                       0                       0                       0                       0                       0
54                      10                       2                5.656854                       0                       0                       0
55                      10                       2                2.828427                       0                       0                       0
56                      10                       2                       0                       0                       0                       0
57                      12                       0                5.656854                       0                       0                       0
58                      12                       0                2.828427                       0                       0                       0
59                      12                       0                       0                       0                       0                       0
60                      14                       2                5.656854                       0                       0                       0
61                      14                       2                2.828427                       0                       0                       0
62                      14                       2                       0                       0                       0                       0
63                      16                       0                5.656854                       0                       0                       0
64                      16                       0                2.828427                       0                       0                       0
65                      16                       0                       0                       0                       0                       0
66                      18                       2                5.656854                       0                       0                       0
67                      18                       2                2.828427                       0                       0                       0
68                      18                       2                       0                       0                       0                       0
69                      20                       0                5.656854                       0                       0                       0
70                      20                       0                2.828427                       0                       0                       0
71                      20                       0                       0                       0                       0                       0
72                      22                       2                5.656854                       0                       0                       0
73                      22                       2                2.828427                       0                       0                       0
74                      22                       2                       0                       0                       0                       0
75                      24                       0                5.656854                       0                       0                       0
76                      24                       0                2.828427                       0                       0                       0
77                      24                       0                       0                       0                       0                       0
78                      26                       2                5.656854                       0                       0                       0
79                      26                       2                2.828427                       0                       0                       0
80                      26                       2                       0                       0                       0                       0
81                      28                       0                5.656854                       0                       0                       0
82                      28                       0                2.828427                       0                       0                       0
83                      28                       0                       0                       0                       0                       0
84                      30                       2                5.656854                       0                       0                       0
85                      30                       2                2.828427                       0                       0                       0
86                      30                       2                       0                       0                       0                       0
87                       0                       4                5.656854                       0                       0                       0
88                       0                       4                2.828427                       0                       0                       0
89                       0                       4                       0                       0                       0                       0
90                       2                       6                5.656854                       0                       0                       0
91                       2                       6                2.828427                       0                       0                       0
92                       2                       6                       0                       0                       0                       0
93                       4                       4                5.656854                       0                       0                       0
94                       4                       4                2.828427                       0                       0                       0
95                       4                       4                       0                       0                       0                       0
96                       6                       6                5.656854                       0                       0                       0
97                       6                       6                2.828427                       0                       0                       0
98                       6                       6                       0                       0                       0                       0
99                       8                       4                5.656854                       0                       0                       0
100                       8                       4                2.828427                       0                       0                       0
101                       8                       4                       0                       0                       0                       0
102                      10                       6                5.656854                       0                       0                       0
103                      10                       6                2.828427                       0                       0                       0
104                      10                       6                       0                       0                       0                       0
105                      12                       4                5.656854                       0                       0                       0
106                      12                       4                2.828427                       0                       0                       0
107                      12                       4                       0                       0                       0                       0
108                      14                       6                5.656854                       0                       0                       0
109                      14                       6                2.828427                       0                       0                       0
110                      14                       6                       0                       0                       0                       0
111                      16                       4                5.656854                       0                       0                       0
112                      16                       4                2.828427                       0                       0                       0
113                      16                       4                       0                       0                       0                       0
114                      18                       6                5.656854                       0                       0                       0
115                      18                       6                2.828427                       0                       0                       0
116                      18                       6                       0                       0                       0                       0
117                      20                       4                5.656854                       0                       0                       0
118                      20                       4                2.828427                       0                       0                       0
119                      20                       4                       0                       0                       0                       0
120                      22                       6                5.656854                       0                       0                       0
121                      22                       6                2.828427                       0                       0                       0
122                      22                       6                       0                       0                       0                       0
123                      24                       4                5.656854                       0                       0                       0
124                      24                       4                2.828427                       0                       0                       0
125                      24                       4                       0                       0                       0                       0
126                      26                       6                5.656854                       0                       0                       0
127                      26                       6                2.828427                       0                       0                       0
128                      26                       6                       0                       0                       0                       0
129                      28                       4                5.656854                       0                       0                       0
130                      28                       4                2.828427                       0                       0                       0
131                      28                       4                       0                       0                       0                       0
132                      30                       6                5.656854                       0                       0                       0
133                      30                       6                2.828427                       0                       0                       0
134                      30                       6                       0                       0                       0                       0
135                       0                       8                5.656854                       0                       0                       0
136                       0                       8                2.828427                       0                       0                       0
137                       0                       8                       0                       0                       0                       0
138                       2                      10                5.656854                       0                       0                       0
139                       2                      10                2.828427                       0                       0                       0
140                       2                      10                       0                       0                       0                       0
141                       4                       8                5.656854                       0                       0                       0
142                       4                       8                2.828427                       0                       0                       0
143                       4                       8                       0                       0                       0                       0
144                       6                      10                5.656854                       0                       0                       0
145                       6                      10                2.828427                       0                       0                       0
146                       6                      10                       0                       0                       0                       0
147                       8                       8                5.656854                       0                       0                       0
148                       8                       8                2.828427                       0                       0                       0
149                       8                       8                       0                       0                       0                       0
150                      10                      10                5.656854                       0                       0                       0
151                      10                      10                2.828427                       0                       0                       0
152                      10                      10                       0                       0                       0                       0
153                      12                       8                5.656854                       0                       0                       0
154                      12                       8                2.828427                       0                       0                       0
155                      12                       8                       0                       0                       0                       0
156                      14                      10                5.656854                       0                       0                       0
157                      14                      10                2.828427                       0                       0                       0
158                      14                      10                       0                       0                       0                       0
159                      16                       8                5.656854                       0                       0                       0
160                      16                       8                2.828427                       0                       0                       0
161                      16                       8                       0                       0                       0                       0
162                      18                      10                5.656854                       0                       0                       0
163                      18                      10                2.828427                       0                       0                       0
164                      18                      10                       0                       0                       0                       0
165                      20                       8                5.656854                       0                       0                       0
166                      20                       8                2.828427                       0                       0                       0
167                      20                       8                       0                       0                       0                       0
168                      22                      10                5.656854                       0                       0                       0
169                      22                      10                2.828427                       0                       0                       0
170                      22                      10                       0                       0                       0                       0
171                      24                       8                5.656854                       0                       0                       0
172                      24                       8                2.828427                       0                       0                       0
173                      24                       8                       0                       0                       0                       0
174                      26                      10                5.656854                       0                       0                       0
175                      26                      10                2.828427                       0                       0                       0
176                      26                      10                       0                       0                       0                       0
177                      28                       8                5.656854                       0                       0                       0
178                      28                       8                2.828427                       0                       0                       0
179                      28                       8                       0                       0                       0                       0
180                      30                      10                5.656854                       0                       0                       0
181                      30                      10                2.828427                       0                       0                       0
182                      30                      10                       0                       0                       0                       0
183                       0                      12                5.656854                       0                       0                       0
184                       0                      12                2.828427                       0                       0                       0
185                       0                      12                       0                       0                       0                       0
186                       2                      14                5.656854                       0                       0                       0
187                       2                      14                2.828427                       0                       0                       0
188                       2                      14                       0                       0                       0                       0
189                       4                      12                5.656854                       0                       0                       0
190                       4                      12                2.828427                       0                       0                       0
191                       4                      12                       0                       0                       0                       0
192                       6                      14                5.656854                       0                       0                       0
193                       6                      14                2.828427                       0                       0                       0
194                       6                      14                       0                       0                       0                       0
195                       8                      12                5.656854                       0                       0                       0
196                       8                      12                2.828427                       0                       0                       0
197                       8                      12                       0                       0                       0                       0
198                      10                      14                5.656854                       0                       0                       0
199                      10                      14                2.828427                       0                       0                       0
200                      10                      14                       0                       0                       0                       0
201                      12                      12                5.656854                       0                       0                       0