ITEM: TIMESTEP
0
ITEM: NUMBER OF ATOMS
422
ITEM: BOX BOUNDS ff ff ff
0.0000000000000000e+00 2.3200000000000000e+02
0.0000000000000000e+00 2.3200000000000000e+02
0.0000000000000000e+00 2.3200000000000000e+02
ITEM: ATOMS id xu yu zu fx fy fz
1        113.145932193839        115.983520815677              112.256854     0.00305115755224596    -0.00111992903220664   -0.000775920444605864
2        118.827484840071        115.989226241634              112.256854    -0.00532688265644839     -0.0010923889595726   -0.000381669007885759
3        117.402344993917        115.987795112765              112.256854     0.00245300686926029     0.00240807345151803    -0.00121131125073443
4        114.571072038949        115.984951942936              112.256854     0.00243755756123677     0.00244694766338945   -0.000794511427176261
5        116.701075167769        114.749724850164              112.256854     0.00289423874289777     0.00427274965515321   -0.000999207494202053
6        115.274826990867        114.748292608712              112.256854     0.00355651482633251     0.00428313025918552   -0.000723114006021257
7        115.272341865028        117.223022205388              112.256854     0.00353009202803278     0.00217528152121107    -0.00120283302533797
8        116.698590041422        117.224454446583              112.256854     0.00283525495224436     0.00213251314094972    -0.00147462116886049
9        114.517756920757        113.548446241175              112.256854    -0.00284318090980301    -0.00504545858900965     -0.0015705728417619
10        117.460553482731        113.551401403886              112.256854     -0.0124255997888977    -0.00508392535215993   -0.000215976709944973
11        114.512863550773        118.421345651893              112.256854    -0.00278564857617406     -0.0103270258028521    0.000702999504604047
12        117.455660110655        118.424300814179              112.256854     -0.0120562868008232     -0.0100555126372859     0.00201619628439633
13        113.127311260236        113.562444587898              112.256854      0.0150643602285046    -0.00661527873280904    -0.00197896054325706
14        113.122448808114        118.404554762274              112.256854       0.014984364002839    -0.00636760408164843   -6.65117247659568e-05
15        118.850968226168        113.568192293572              112.256854     -0.0281616226964609    -0.00670470792057066      0.0003100302567357
16        118.846105771496         118.41030247058              112.256854     -0.0277307476607373    -0.00594837302056849     0.00215445197436171
17        112.426795838139         117.19431994364              112.256854     0.00309529576465647     0.00690967848801664   -0.000613862900675493
18         112.42922905874        114.771279815063              112.256854     0.00305771522473243    0.000991372681912761   -3.95224482054893e-05
19        119.546621196692        114.778427112272              112.256854     0.00505291930054601    0.000932015041636459    -0.00181703607231556
20        119.544187975028         117.20146724296              112.256854     0.00489573443964129     0.00665601459882036    -0.00236592434317819
21        120.955135022624        114.824435085822              112.256854       0.103813264907498       0.134363647540334     -0.0185654906429834
22        120.952791362251        117.158288229576              112.256854       0.101926261253403     -0.0504023004991926     -0.0243819378749893
23        111.020625673161        114.814458829493              112.256854    -0.00993404722560895       0.135277265843073      0.0109920429208034
24        111.018282013145        117.148311972274              112.256854    -0.00885276044293055      -0.046518975451611     0.00477615849730861
25        121.586726460739        115.991997078118              112.256854     -0.0345961893125038     -0.0223061204784532      0.0121659906789557
26        110.386690574472        115.980749978664              112.256854     -0.0166505913441673     -0.0238138948204842    -0.00627797591820335
27        121.609196045824        118.185922140926              112.256854       -0.11663404480832     -0.0540715648331627       0.035086095751053
28          121.6136022867        113.798121569695              112.256854       -0.12184758153061      -0.047613765898398      0.0217756002196599
29        110.359814750727        118.174625487296              112.256854     0.00312001062418274     -0.0613001819373443    -0.00590791547410105
30         110.36422099026         113.78682491673              112.256854     0.00562240317671546     -0.0471155151569563     -0.0202865327037463
31        112.599866822243        112.615454800093              112.256854     -0.0316128741233291      0.0104774021924618      0.0047477227636358
32        112.593103500599        119.350483321209              112.256854     -0.0311592047406561      0.0242854953928759    -0.00245118047022073
33        119.380313532952        112.622263734631              112.256854      0.0665003060264363       0.011032271660007    -0.00252101006281725
34        119.373550207142        119.357292260389              112.256854      0.0647174050325656      0.0226144277879655    -0.00941774865580119
35        114.962286572867         112.56896056388              112.256854      0.0118688081573244     0.00581625059356099     0.00146173447974286
36        114.955425108682        119.401722146141              112.256854      0.0116536241094272      0.0169680298704457    -0.00331631918522944
37        117.017991924022        112.571024909739              112.256854      0.0104031976731684     0.00590802003450982    8.55359462270048e-05
38        117.011130457531        119.403786490585              112.256854     0.00973997353368967      0.0166150299083625    -0.00463209545336488
39                     100                     100              105.656854       0.212139409374798       0.213676757563137      -0.975529987438008
40                     100                     100              102.828427       0.432012175324635       0.430773347397219   -0.000384983596772832
41                     100                     100                     100       0.212188976533604       0.213143042745774       0.976234820512712
42                     102                     102              105.656854       -0.34444737527522      -0.346921700092422      -0.278196998907086
43                     102                     102              102.828427      -0.050857300524628      -0.048983233664794    0.000608196397016629
44                     102                     102                     100      -0.344618449666739      -0.345972516896588       0.277068147132025
45                     104                     100              105.656854      0.0959528145997921       0.959716185735349      -0.808864146342887
46                     104                     100              102.828427     -0.0640142561290162       0.727061156822797   -0.000210899227203771
47                     104                     100                     100      0.0964330774966673       0.959178859288426       0.809251466230933
48                     106                     102              105.656854      -0.149629183833931      -0.514186183159948      -0.381477385353061
49                     106                     102              102.828427       0.142870712539177       0.065925858008188    0.000170551497296082
50                     106                     102                     100      -0.150748805041519      -0.513402353522576       0.381129374738938
51                     108                     100              105.656854       0.110106221280441        1.06003440169549      -0.802057952175133
52                     108                     100              102.828427      -0.112189643527963       0.639875475400087    0.000357558133822231
53                     108                     100                     100       0.111174334843258        1.06008799036688       0.801395608259423
54                     110                     102              105.656854      -0.144526542628844      -0.582274389154846      -0.373443283778472
55                     110                     102              102.828427       0.149299977460595       0.135261919886104     -0.0010219579890287
56                     110                     102                     100      -0.146571423900816      -0.583011848423014       0.375351843933057
57                     112                     100              105.656854       0.132334433295346        1.10925558224204      -0.811121547465257
58                     112                     100              102.828427      -0.136157319180055       0.588600967567248     0.00118829412086685
59                     112                     100                     100       0.133394742058687        1.11052320119372       0.808894829364604
60                     114                     102              105.656854      -0.164702523113648      -0.621250776815742      -0.360648449200731
61                     114                     102              102.828427       0.169569148699379       0.176933742395307    -0.00229711436645989
62                     114                     102                     100      -0.165852479277833      -0.624076186576881       0.365061085294338
63                     116                     100              105.656854       0.166588143392277        1.14531816806483      -0.821816242437174
64                     116                     100              102.828427      -0.170771376212301       0.550902580721584     0.00161464814718531
65                     116                     100                     100       0.166587084246277        1.14728591790189       0.818777198228157
66                     118                     102              105.656854      -0.208593704880536       -0.65344615020227      -0.347216278905203
67                     118                     102              102.828427       0.213518670397254       0.210177158489544     -0.0022954392516992
68                     118                     102                     100      -0.207440257816698      -0.656267161713304       0.351625451453378
69                     120                     100              105.656854       0.222545508911273         1.1833373918043       -0.83568910593877
70                     120                     100              102.828427      -0.227931495112919       0.512094936697753     0.00118752620247224
71                     120                     100                     100       0.221485898265045        1.18460251359597       0.833463889881451
72                     122                     102              105.656854      -0.287330852734966      -0.688443346523187      -0.329914724083003
73                     122                     102              102.828427       0.292137850984127       0.244824652739398    -0.00102090683970252
74                     122                     102                     100      -0.285291008106493      -0.689177203364245       0.331821350689459
75                     124                     100              105.656854        0.32577319495032        1.23667790280781      -0.852256322315596
76                     124                     100              102.828427      -0.322326569866004        0.45949086895848    0.000358450295486418
77                     124                     100                     100       0.324708323533396        1.23673197147261       0.851592225688576
78                     126                     102              105.656854      -0.461133922121827      -0.726988551661212      -0.332045332410166
79                     126                     102              102.828427       0.396545471175156       0.281104887308463    0.000167506314408518
80                     126                     102                     100      -0.460019108248931      -0.726208753777099       0.331703535135622
81                     128                     100              105.656854       0.708077864559987        1.34036470770964      -0.754665208470472
82                     128                     100              102.828427      -0.280656920297593       0.396440384663331   -0.000208098741741764
83                     128                     100                     100       0.707599186683637        1.33983082364039       0.755047243364525
84                     130                     102              105.656854       -1.34063751704989       -0.70809848716491      -0.755636375911901
85                     130                     102              102.828427      -0.395904631009282       0.280363386427379    0.000603374143388683
86                     130                     102                     100       -1.34046657228571      -0.707155109273335       0.754516699889199
87                     100                     104              105.656854       0.958723966429293      0.0992466717953195      -0.808062644458668
88                     100                     104              102.828427       0.727963942913837      -0.066415120234625   -0.000973945738464481
89                     100                     104                     100       0.958416321832421      0.0980986654857995       0.809871437802404
90                     102                     106              105.656854      -0.512815714384829      -0.155165116236897       -0.38327545438847
91                     102                     106              102.828427       0.064635055728465       0.146513172573735     0.00166629953724785
92                     102                     106                     100      -0.512336740385966      -0.153048429403386        0.38005604880308
93                     104                     104              105.656854       0.247142546910747       0.251320125847925      -0.388257494956303
94                     104                     104              102.828427      -0.180174440521216      -0.183067177809682   -0.000939641476805242
95                     104                     104                     100       0.247701093074936       0.249621731277023       0.390091173047594
96                     106                     106              105.656854      -0.233391257211464      -0.240762191228764      -0.504478426070683
97                     106                     106              102.828427       0.226193022890407       0.230671212305502     0.00130085896042274
98                     106                     106                     100      -0.235190992175196      -0.237857113978688       0.501556914243806
99                     108                     104              105.656854       0.174779565648998       0.337223274404681      -0.375483503560782
100                     108                     104              102.828427      -0.178875577569542      -0.267872870510049    0.000182209780917978
101                     108                     104                     100       0.177424377132129       0.336370381248022       0.375284639103834
102                     110                     106              105.656854       -0.18762320715347      -0.291796910526331      -0.489209317520944
103                     110                     106              102.828427       0.196524301936224       0.285276614601171    -0.00148677631667121
104                     110                     106                     100       -0.19353940215884      -0.291978286844042       0.491826922242848
105                     112                     104              105.656854       0.169874086011965       0.381976505527348      -0.391566952563075
106                     112                     104              102.828427      -0.176573738700426      -0.316486858002631     0.00253180805248103
107                     112                     104                     100       0.173301413180006       0.384670046646451       0.386607470251026
108                     114                     106              105.656854       -0.19283608743634      -0.318409941560951      -0.467575663225512
109                     114                     106              102.828427       0.200638176500228        0.31764730897301     -0.0053459577411321
110                     114                     106                     100      -0.196764616381679      -0.325082838321778       0.479034279474778
111                     116                     104              105.656854       0.198193693944046       0.411089429866377      -0.407125183775475
112                     116                     104              102.828427      -0.203399060379514      -0.348295963146754     0.00390901852963461
113                     116                     104                     100       0.198187107905552       0.416212835439753       0.399253643915557
114                     118                     106              105.656854      -0.236382491114958      -0.340620364613946      -0.451681728381412
115                     118                     106              102.828427       0.240180382815834         0.3405438201689    -0.00533736990713659
116                     118                     106                     100      -0.232434482790582      -0.347272734621939       0.463119147592144
117                     120                     104              105.656854       0.257543744057923       0.438638565360575       -0.42228634088759
118                     120                     104              102.828427      -0.262421957104291      -0.374987858007748     0.00252660342299627
119                     120                     104                     100       0.254118313202743        0.44131911388219       0.417337991388105
120                     122                     106              105.656854      -0.312635457337367       -0.36177920446621      -0.437441207882032
121                     122                     106              102.828427       0.315431167558818       0.357527927510023    -0.00147948269925687
122                     122                     106                     100      -0.306741445936504      -0.361943875625847       0.440044968180376
123                     124                     104              105.656854        0.36646303009562       0.462529701604755      -0.438806701109981
124                     124                     104              102.828427      -0.360798644183083      -0.397082917634621    0.000183213990888933
125                     124                     104                     100       0.363830433039505       0.461677366811376       0.438604422172477
126                     126                     106              105.656854      -0.465843884870955      -0.365074993453031       -0.44139138554469
127                     126                     106              102.828427       0.400151395580992       0.358916689192057     0.00129355588148525
128                     126                     106                     100      -0.464057924698148      -0.362181469869455       0.438489785926741
129                     128                     104              105.656854       0.728026825478643       0.460821366699011      -0.330406421128283
130                     128                     104              102.828427       -0.28242342747393      -0.395757624016082   -0.000932785347215504
131                     128                     104                     100       0.727471315751952       0.459132361154071       0.332225825817492
132                     130                     106              105.656854       -1.23757061786638      -0.326432390736719       -0.85410672789252
133                     130                     106              102.828427      -0.458184042244385       0.322258736434044     0.00165542038483644
134                     130                     106                     100       -1.23804659968326      -0.324328048490932       0.850909878812185
135                     100                     108              105.656854        1.06139896122976        0.11511748288409      -0.799282484105857
136                     100                     108              102.828427       0.639463160692182       -0.11552170447532    -0.00205264195825437
137                     100                     108                     100        1.06000750376594       0.113286249775127       0.803190750434788
138                     102                     110              105.656854      -0.585343519334238      -0.152101130916238      -0.379582331827515
139                     102                     110              102.828427       0.136033620173906       0.153744041159005     0.00350591454712693
140                     102                     110                     100      -0.582860824711528      -0.149101406800256       0.372417873241632
141                     104                     108              105.656854       0.335325385502708       0.184254635364061      -0.371142521048223
142                     104                     108              102.828427      -0.265946551135845      -0.184268038253875    -0.00278237743911969
143                     104                     108                     100       0.334850095527032       0.180450947701042       0.377098751378652
144                     106                     110              105.656854      -0.288780919971185      -0.203053274315552      -0.499958667784361
145                     106                     110              102.828427       0.282182221035545       0.203810574356829      0.0041104220068684
146                     106                     110                     100      -0.289783621266427      -0.197127290469041       0.488982867724885
147                     108                     108              105.656854       0.225311633704744       0.238473755269124      -0.362446103618493
148                     108                     108              102.828427      -0.232866031420171      -0.239533903991704     -0.0011549285430704
149                     108                     108                     100       0.230890710020856       0.234377952530035       0.366387913635342
150                     110                     110              105.656854      -0.213360217335606      -0.234547559199598       -0.47687030101809
151                     110                     110              102.828427       0.229854507867275       0.238635505567547    -0.00114174296752665
152                     110                     110                     100      -0.228030248317511      -0.232070709624821       0.476153328695997
153                     112                     108              105.656854       0.195118512359032       0.264967984331125      -0.390837684152848
154                     112                     108              102.828427      -0.208167404493534      -0.273231306132998     0.00488634653212135
155                     112                     108                     100        0.20580019817754        0.26914501714507        0.38027478062395
156                     114                     110              105.656854      -0.206608264991059      -0.242799702158287      -0.434586884795908
157                     114                     110              102.828427       0.220582283658837       0.257625736501259     -0.0107002518876354
158                     114                     110                     100      -0.217770921341286      -0.253169633165005       0.462702534459451
159                     116                     108              105.656854       0.220207301671702        0.27946272907689      -0.415767635142613
160                     116                     108              102.828427      -0.226086388292281      -0.293528541419207     0.00895308651013692
161                     116                     108                     100       0.220176483316058       0.290394175851201       0.394378550246813
162                     118                     110              105.656854      -0.256141069821489      -0.253809427942814      -0.417328793036827
163                     118                     110              102.828427       0.254768913361886        0.26892334090883     -0.0106697169250208
164                     118                     110                     100      -0.244897903696691      -0.264123270072955       0.445348118345158
165                     120                     108              105.656854       0.279929791180243       0.298595482132214      -0.425585643653852
166                     120                     108              102.828427      -0.280040757529961      -0.307873537108542      0.0048629188730273
167                     120                     108                     100       0.269255119408989       0.302720813044695       0.415084014032764
168                     122                     110              105.656854      -0.323334691913305      -0.268083454265009       -0.42051845346797
169                     122                     110              102.828427       0.319819513286107        0.27317372527811    -0.00111088674456425
170                     122                     110                     100      -0.308747825723694      -0.265543610973502       0.419732015969933
171                     124                     108              105.656854       0.371580580404479       0.308101544586349      -0.434792309404946
172                     124                     108              102.828427      -0.364115583833286       -0.31143209988369    -0.00115609119268598
173                     124                     108                     100       0.366045930078031       0.304003631525064       0.438721353394356
174                     126                     110              105.656854      -0.446633021460089      -0.258950210891896      -0.428581390320814
175                     126                     110              102.828427       0.381468286291428       0.261540969021919     0.00409760960839974
176                     126                     110                     100      -0.445663516199924      -0.253036663369915       0.417666266476822
177                     128                     108              105.656854       0.691180757523162       0.288374638681157      -0.326437654325269
178                     128                     108              102.828427      -0.247823770331964      -0.291796837016971    -0.00276690163407729
179                     128                     108                     100       0.691658230921289        0.28458968881083       0.332353866050083
180                     130                     110              105.656854       -1.18411238591991      -0.224465825082402      -0.839557014132224
181                     130                     110              102.828427      -0.510154506958993       0.228502445137844     0.00348598738564095
182                     130                     110                     100       -1.18658303518923      -0.221480339967506        0.83243986111625
183                     100                     112              105.656854         1.1144950710759       0.136580480747624      -0.805532008446271
184                     100                     112              102.828427       0.586203381816256      -0.138810265897813    -0.00334448562565058
185                     100                     112                     100        1.11139395351655       0.134977578260011       0.812065860555345
186                     102                     114              105.656854      -0.629661492728106      -0.168507587539425      -0.371465105391864
187                     102                     114              102.828427       0.179996988633784       0.171689278926329      0.0051821773055391
188                     102                     114                     100      -0.624871848800641      -0.166999505875697       0.360475207873278
189                     104                     112              105.656854       0.387671335600717        0.17990270810798      -0.377979534858191
190                     104                     112              102.828427       -0.31735036450891      -0.181634880177576    -0.00554276881211701
191                     104                     112                     100       0.384188608837386       0.175865833709223       0.391060302741209
192                     106                     114              105.656854      -0.324685068919903      -0.201567257796552      -0.494113085195134
193                     106                     114              102.828427       0.317288860346401       0.204518451266403     0.00710104186562342
194                     106                     114                     100      -0.323760373115513      -0.198539469305809       0.473184590104529
195                     108                     112              105.656854       0.257676518258588       0.214926533364925      -0.367626273371702
196                     108                     112              102.828427      -0.267987445451915      -0.216066238178855    -0.00407307708765387
197                     108                     112                     100       0.266072678971141       0.209274671471193       0.384097122488935
198                     110                     114              105.656854      -0.224723873397881      -0.220076336949263      -0.464480575896957
199                     110                     114              102.828427       0.249667177368428       0.225956816602155   -0.000361956456483688
200                     110                     114                     100      -0.249355927019533      -0.219992060605959        0.45875107253213
201                     112                     112              105.656854       0.202745209082836       0.227003289922706      -0.415647080769215