ITEM: TIMESTEP
0
ITEM: NUMBER OF ATOMS
422
ITEM: BOX BOUNDS ff ff ff
0.0000000000000000e+00 2.3200000000000000e+02
0.0000000000000000e+00 2.3200000000000000e+02
0.0000000000000000e+00 2.3200000000000000e+02
ITEM: ATOMS id xu yu zu fx fy fz
1        113.148864857824        115.986453479663        108.659786663986    -0.00404716733517481   -0.000927040731022001     0.00679768580709948
2        118.833797661535        115.995539063098        108.663166821464     0.00118343917163805     -0.0011907132085493     0.00707892021411293
3        117.365518725749        115.950968844597        108.620027731832    -0.00122992976207102     0.00506110430391453      0.0172757322377426
4        114.575719660259        115.989599564246         108.66150162131      0.0064020685707466      0.0033177201102642      0.0133195154956875
5        116.662912368143        114.711562050537        108.618691200373     -0.0201467168456304      0.0172315698928176      0.0461343691064077
6        115.248735092079        114.722200709923        108.630762101212      0.0292615592821172      0.0187700249612937      0.0509128448638263
7        115.290749904598        117.241430244958         108.67526203957      0.0237336687184677    -0.00809626855221319      0.0359095985826704
8        116.710897859586        117.236762264747        108.669161818164      -0.016401181794571    -0.00847847681849299      0.0367716445833669
9        114.491790905804        113.522480226222        108.630887985047      0.0318092927630155     -0.0416474298248218       0.173255169101884
10        117.463620665113        113.554468586267        108.659921182381     -0.0499851427921139     -0.0363266416734979        0.15510555390521
11        114.548867997574        118.457350098694        108.692858446801      0.0277347876461262       0.014949952401232        0.13541027528437
12        117.491692968773        118.460333672297        108.692886858118     -0.0442265490311378      0.0161483907685529       0.140482073110049
13         113.16919122989        113.604324557552        108.698733969654     -0.0246795394068063     -0.0259534026880781       0.101119504398678
14        113.143251794545        118.425357748705        108.677656986431     -0.0266205653122065      0.0130394614081703       0.105582000888237
15        118.862215957393        113.579440024797        108.668101731225      0.0117684892463594      -0.029175121930805        0.10943342597775
16        118.804583608192        118.368780307276        108.615331836696      0.0210357261697621       0.016093584563755       0.148505101011159
17        112.381231309334        117.148755414835        108.611289471195    -0.00825134122541392     0.00162818361399882      0.0245334680044041
18        112.462493511732        114.804544268056        108.690118452993    -0.00798081293985962     0.00718880355120035      0.0186493357898641
19        119.552465227979        114.784271143558        108.662698031286      0.0191783238589906     0.00807022074857214      0.0207650620027159
20        119.570222555323        117.227501823254        108.682888580295      0.0174335452342287     0.00223122456827325      0.0171396495627766
21        120.998857565593        114.868157628791        108.700576542969       0.131489403285641       0.125613496625609      0.0244587887169949
22         121.00030765868        117.205804526005         108.70437029643       0.129134513090065      -0.024040467371837      0.0208049488928574
23        110.986565039976        114.780398196308        108.622793366815     -0.0106185881019113       0.126564834312696      0.0697417958150754
24        111.065068002654        117.195097961782        108.703639989509     -0.0141365860931033     -0.0148425698362889      0.0408382626355426
25        121.634790790027        116.040061407405        108.704918329287     -0.0547511706970731     -0.0280554619109663      0.0029045695690935
26        110.413847996319        116.007907400512        108.684011421848    -0.00866392838872175     -0.0288783766404765     -0.0120663834707273
27        121.580780331204        118.157506426306         108.62843828538      -0.179663719033842     -0.0493214401591587       0.197322417961583
28        121.625539862694        113.810059145688        108.668791575994      -0.173776242667878     -0.0787031586311252        0.17119082014417
29        110.363405199908        118.178215936477        108.660444449181      0.0243175966209547     -0.0549120285145866       0.153802407752872
30        110.335902257298        113.758506183767        108.628535267037      0.0292011432998045     -0.0858239432486707       0.158179191163097
31        112.642568254005        112.658156231856        108.699555431762     -0.0147409807440343      0.0239573219067856     0.00941306823637143
32        112.624803951927        119.382183772537        108.688554451328     -0.0139874923353886      0.0177905707105437     0.00475257578627896
33         119.33612887086        112.578079072539        108.612669337908      0.0567063331106403       0.028299272748509      0.0073941762474652
34        119.359882906367        119.343624959614        108.643186699225      0.0550778652030506      0.0126647020654437   -0.000663045491746836
35         115.01165406659        112.618328057602        108.706221493723     0.00545324298749343      0.0146805236870369    -0.00129947023332124
36        114.984973723494        119.431270760953        108.686402614812     0.00463712064009653      0.0134521819529829    -0.00466272936992482
37        117.061973721729        112.615006707447        108.700835797708      0.0208244675569659      0.0149764407063074    -0.00278227970270053
38        117.009806416468        119.402462449521        108.655529958937      0.0213391910236578      0.0122197925131394    -0.00555180337472635
39                     100                     100              105.656854       0.212241492255436       0.214091994167932       -0.97569092602079
40                     100                     100              102.828427        0.43194479774656       0.430323646132866   -0.000390631486576864
41                     100                     100                     100       0.212201852320493       0.213528434670699       0.976348238620793
42                     102                     102              105.656854      -0.344602407670762      -0.347768312037171      -0.277970046626946
43                     102                     102              102.828427     -0.0508028861471792     -0.0481513671299814    0.000722351290744447
44                     102                     102                     100      -0.344558629504335      -0.346601892426359       0.276796006860916
45                     104                     100              105.656854        0.09582015167967       0.960268587709881      -0.808948064423374
46                     104                     100              102.828427      -0.063796333695261       0.726524430421724   -0.000303429637829735
47                     104                     100                     100          0.096178334082       0.959582890370897       0.809421708460703
48                     106                     102              105.656854      -0.149130302770493      -0.515230290245512      -0.381457791535464
49                     106                     102              102.828427       0.142228615908785      0.0667976035266275    0.000440082310763251
50                     106                     102                     100      -0.150128222533044      -0.513945156315797       0.380816558996374
51                     108                     100              105.656854       0.109500712179046        1.06029131533171      -0.801922399723394
52                     108                     100              102.828427      -0.111499784957148       0.639693526068945    0.000219217805371464
53                     108                     100                     100       0.110562358331764        1.06017365019179       0.801494075162871
54                     110                     102              105.656854      -0.142995349944221      -0.582132224942028      -0.373818088228271
55                     110                     102              102.828427       0.147800428774875        0.13501881061567   -0.000894651976118635
56                     110                     102                     100      -0.145430275373465      -0.582760935575992        0.37538749989284
57                     112                     100              105.656854       0.131566191136267          1.108543875707      -0.810708249312886
58                     112                     100              102.828427      -0.135369834424035       0.589336272478416     0.00114426265916211
59                     112                     100                     100       0.132764720160508        1.10995128779522         0.8087484024569
60                     114                     102              105.656854      -0.163625295411763      -0.618863067037526      -0.361312671172891
61                     114                     102              102.828427       0.168598382743489       0.174905247204819    -0.00261406914194752
62                     114                     102                     100       -0.16517063363801      -0.622757738048683       0.365660898362023
63                     116                     100              105.656854       0.166500435337093        1.14393402319972      -0.821280630938968
64                     116                     100              102.828427      -0.170697190525354       0.552231511209099     0.00167116002675923
65                     116                     100                     100       0.166529609454709        1.14631815340234       0.818461990297775
66                     118                     102              105.656854      -0.209427621899214      -0.650939520463736      -0.347853178647925
67                     118                     102              102.828427       0.214293719285023       0.208071357871286    -0.00265574751151311
68                     118                     102                     100      -0.207979488677607      -0.654907253254313       0.352262359701597
69                     120                     100              105.656854       0.223184994809765        1.18250737876914      -0.835297633144105
70                     120                     100              102.828427      -0.228605692648077       0.512918972265391     0.00118310771875425
71                     120                     100                     100       0.222023556974927         1.1839737346221        0.83327736179162
72                     122                     102              105.656854      -0.288760908563852      -0.688065636908691      -0.330237231190659
73                     122                     102              102.828427       0.293541647898546       0.244417646360486   -0.000982998911858015
74                     122                     102                     100      -0.286348617760285      -0.688830599350811       0.331939767750259
75                     124                     100              105.656854       0.326332274094491         1.2367823745286      -0.852148275230519
76                     124                     100              102.828427       -0.32296903350319       0.459429291238312    0.000272347052573614
77                     124                     100                     100       0.325273974359618        1.23673482587796       0.851634192074319
78                     126                     102              105.656854      -0.461639186120014      -0.727828442015302      -0.331982199680456
79                     126                     102              102.828427        0.39717931068806       0.281820871265909    0.000356537295448828
80                     126                     102                     100      -0.460617898014432      -0.726648848368971       0.331474092731255
81                     128                     100              105.656854       0.708217177738991        1.34078902008302      -0.754772093793538
82                     128                     100              102.828427      -0.280874661264143       0.396010552672836   -0.000255990346489587
83                     128                     100                     100       0.707845634132727        1.34015506664452       0.755165539338861
84                     130                     102              105.656854       -1.34052597880629      -0.708805883602915      -0.755380068882595
85                     130                     102              102.828427      -0.395929057880002       0.281080410260783    0.000661729933354886
86                     130                     102                     100       -1.34053995008366      -0.707699769419125       0.754308446457127
87                     100                     104              105.656854       0.959256808648069       0.100192088199776      -0.808426435639143
88                     100                     104              102.828427       0.727531207263019     -0.0673600924366437    -0.00108529909239264
89                     100                     104                     100       0.958646242691338      0.0988250727909874       0.810215254977389
90                     102                     106              105.656854      -0.514080386400513      -0.157366754778245      -0.382817909272066
91                     102                     106              102.828427      0.0654442385287035       0.148389980432439     0.00226137045283794
92                     102                     106                     100      -0.512607876350673      -0.154258211657266       0.379201801070746
93                     104                     104              105.656854       0.247348108385289       0.253242356979262      -0.388487974835088
94                     104                     104              102.828427      -0.180086119701352      -0.184674301307246    -0.00141287989567325
95                     104                     104                     100       0.247399087768258       0.250632850690883       0.390709179004033
96                     106                     106              105.656854       -0.23335253995878      -0.245664021984171      -0.504804365580029
97                     106                     106              102.828427       0.225371434521283       0.233790289146775     0.00287256641824671
98                     106                     106                     100         -0.234163483219      -0.239344476285893       0.500278654694585
99                     108                     104              105.656854        0.17295829775078       0.339120952707923      -0.375194275995475
100                     108                     104              102.828427      -0.177034014682652      -0.269092201694582   -0.000419201706188742
101                     108                     104                     100       0.175991313703307       0.336916184475689       0.375724632041039
102                     110                     106              105.656854      -0.180941633329515      -0.293833825616049      -0.490158285220679
103                     110                     106              102.828427       0.191578764279736       0.285981848038542   -0.000845382736343245
104                     110                     106                     100      -0.190573334494161      -0.291966097370603       0.491723938179902
105                     112                     104              105.656854       0.166355336826921        0.37952590888939      -0.390964866344013
106                     112                     104              102.828427      -0.173714837601006      -0.314606697128459     0.00300022167966549
107                     112                     104                     100       0.171486018862981       0.383516034219545       0.385929363811234
108                     114                     106              105.656854      -0.187140282726754      -0.307348708762716      -0.466677893275201
109                     114                     106              102.828427       0.196886163281167       0.311690103926267    -0.00855363595841815
110                     114                     106                     100      -0.194793173137229       -0.32231391943506       0.481485528108187
111                     116                     104              105.656854       0.197969184688043       0.404949291543953      -0.406579590576514
112                     116                     104              102.828427      -0.203240758115228      -0.344037139939784     0.00535567758461873
113                     116                     104                     100       0.198086705181333       0.413900499030141       0.397740858674082
114                     118                     106              105.656854      -0.241412309566937      -0.329065160382652       -0.45057104269107
115                     118                     106              102.828427        0.24352153400677       0.334410081247179    -0.00873988627118081
116                     118                     106                     100      -0.234171718548546       -0.34445230645262       0.465671032846882
117                     120                     104              105.656854       0.260816184859453       0.435819881632169      -0.421793233121815
118                     120                     104              102.828427       -0.26507992808687      -0.372904171406055     0.00314452883671979
119                     120                     104                     100       0.255786728068501       0.440073694073635       0.416551006711514
120                     122                     106              105.656854      -0.319262096271003      -0.363119147959437      -0.438106653320859
121                     122                     106              102.828427       0.320262907890066       0.357921341172462    -0.00116378254225899
122                     122                     106                     100      -0.309593163929852      -0.361815369536623       0.440144716956439
123                     124                     104              105.656854       0.368282732475112        0.46406915459605      -0.438616610469324
124                     124                     104              102.828427      -0.362606375045983      -0.398072767761072   -0.000260020230598396
125                     124                     104                     100       0.365211362533206       0.462100267651812       0.438909784565213
126                     126                     106              105.656854      -0.466038062206245      -0.369560632188315       -0.44156722307036
127                     126                     106              102.828427       0.401030288870037       0.361788992977925     0.00264349774846484
128                     126                     106                     100      -0.465078151357207      -0.363543714551537       0.437389301435298
129                     128                     104              105.656854       0.727898377140299       0.462516732925202      -0.330695783267113
130                     128                     104              102.828427      -0.282555158081468       -0.39719617273997    -0.00130066049373229
131                     128                     104                     100       0.727783856893661       0.460034897637095       0.332737831708998
132                     130                     106              105.656854       -1.23644444202309      -0.328424861813229      -0.853581126894714
133                     130                     106              102.828427      -0.458903478666405       0.323981128443397     0.00213305466734399
134                     130                     106                     100       -1.23781705568025      -0.325437820336391        0.85017314653501
135                     100                     108              105.656854        1.06331448601819       0.116815431687961      -0.799928161912713
136                     100                     108              102.828427       0.637973274697447      -0.117051226364969    -0.00255591139473844
137                     100                     108                     100        1.06080491926806       0.114329539939945       0.804065019712174
138                     102                     110              105.656854      -0.590502305840738       -0.15587994514122      -0.379212328688906
139                     102                     110              102.828427       0.139081128173007       0.156495876584063     0.00554312166057101
140                     102                     110                     100      -0.584003426159036      -0.150621569420252       0.370343856354563
141                     104                     108              105.656854       0.338804727241079        0.19006408784646      -0.370928947141774
142                     104                     108              102.828427      -0.267369231366997       -0.18805127676898    -0.00508878823782724
143                     104                     108                     100       0.334919990419757       0.182338139503721       0.379093497413273
144                     106                     110              105.656854      -0.299274753943438      -0.219830985112219      -0.507128759443959
145                     106                     110              102.828427       0.283631191945725       0.210724320470476      0.0118890159305199
146                     106                     110                     100      -0.288678454029248      -0.199533627511391       0.484941389774906
147                     108                     108              105.656854       0.222084412674084       0.252125644170687      -0.358177999451687
148                     108                     108              102.828427      -0.228869506323778      -0.244853571949268    -0.00548006789034213
149                     108                     108                     100       0.227981946911096       0.236040876350486       0.368471566223887
150                     110                     110              105.656854      -0.179807472929404      -0.259555086592696      -0.492900653077514
151                     110                     110              102.828427       0.215646661465183       0.243594692335959     0.00587552119356235
152                     110                     110                     100      -0.221582194582333      -0.232670231731475       0.474736222155294
153                     112                     108              105.656854       0.174776932854039       0.257783080618762       -0.39296921611802
154                     112                     108              102.828427      -0.197612642309644      -0.269765788545831     0.00772472138375311
155                     112                     108                     100       0.200984947284144       0.267467111849496       0.378303360827908
156                     114                     110              105.656854      -0.176580975859412      -0.186567524755122      -0.387004063344744
157                     114                     110              102.828427       0.208348133243477       0.246693672493856     -0.0262199968180313
158                     114                     110                     100       -0.21310092077792      -0.249397117229961        0.46957995630027
159                     116                     108              105.656854       0.219371598131618       0.250585526968026      -0.425731014051056
160                     116                     108              102.828427      -0.225742901143625      -0.282066339582558      0.0190265841402847
161                     116                     108                     100       0.220027603748281       0.286176104395429       0.389027654538133
162                     118                     110              105.656854      -0.283773244785266      -0.195642291860131      -0.366472710968491
163                     118                     110              102.828427       0.266378679459381       0.258058840506848     -0.0268409755133507
164                     118                     110                     100      -0.249304736968224       -0.26040770704985       0.452368362891695
165                     120                     108              105.656854       0.299913405356931       0.290005016675422      -0.428713529373433
166                     120                     108              102.828427      -0.290275510845899      -0.304130057859377      0.0083095301043307
167                     120                     108                     100       0.273861466364039       0.300998869482945       0.412874309498865
168                     122                     110              105.656854      -0.357367895493717      -0.291798973672902      -0.434161139301796
169                     122                     110              102.828427       0.333842691779145       0.278161953439319     0.00500948814957055
170                     122                     110                     100      -0.315021097211511      -0.266188817831507       0.418615326612982
171                     124                     108              105.656854       0.375138563248674       0.320866953358799      -0.431063690729348
172                     124                     108              102.828427       -0.36814154246233       -0.31645473900146    -0.00498592667993702
173                     124                     108                     100       0.368890052445255       0.305571416040856       0.440530827050879
174                     126                     110              105.656854      -0.436820368734591      -0.275099512174457      -0.435105616079886
175                     126                     110              102.828427       0.380152959354292       0.268264074572482      0.0113399992300277
176                     126                     110                     100      -0.446744179568713      -0.255379460111794       0.413918603005982
177                     128                     108              105.656854       0.687988724952055       0.293826380361662      -0.326398673734882
178                     128                     108              102.828427       -0.24653551632821      -0.295371841423479    -0.00482792094008185
179                     128                     108                     100       0.691622995396244       0.286369447626613       0.334152788528896
180                     130                     110              105.656854       -1.17926656533954      -0.227999138663364      -0.839028203734963
181                     130                     110              102.828427      -0.513031984261452       0.231101818172865     0.00529945853210546
182                     130                     110                     100       -1.18550678127872      -0.222915598917022         0.8305545800253
183                     100                     112              105.656854        1.11885337773549       0.138170783831355      -0.806373772790678
184                     100                     112              102.828427        0.58303460511428      -0.140141386370581     -0.0045459343536128
185                     100                     112                     100         1.1130017805967       0.135810487628528       0.813671414170148
186                     102                     114              105.656854      -0.639832385774799      -0.170407621732168      -0.371599926804898
187                     102                     114              102.828427       0.185614417228338       0.173006061796422     0.00892644389870561
188                     102                     114                     100      -0.626921052457517      -0.167672786676063        0.35719482786479
189                     104                     112              105.656854       0.402657614616996       0.187669473173989      -0.374334655547187
190                     104                     112              102.828427      -0.322852077289702      -0.185763219738262     -0.0122614014315616
191                     104                     112                     100       0.385212481783887       0.177619485006393       0.395416717399842
192                     106                     114              105.656854      -0.357822483146771      -0.208409396096849      -0.518044447159994
193                     106                     114              102.828427       0.322675173417904       0.207793047203526      0.0240739548415468
194                     106                     114                     100      -0.322828240495898       -0.19964030201532       0.466040625926336
195                     108                     112              105.656854       0.285170672022009       0.258058074551786      -0.304871886399477
196                     108                     112              102.828427      -0.262673592293783      -0.223521303258242     -0.0228165305482582
197                     108                     112                     100       0.261461680166052        0.21106316505689       0.389871386674461
198                     110                     114              105.656854      -0.156756514091943      -0.193683146960327      -0.764946094976189
199                     110                     114              102.828427       0.223558206887004       0.225780265295565      0.0171780555369299
200                     110                     114                     100      -0.239467908856607      -0.220011681994159        0.45586423852158
201                     112                     112              105.656854      0.0952612853885574       0.228391366646644      -0.425249038826571