ITEM: TIMESTEP
0
ITEM: NUMBER OF ATOMS
422
ITEM: BOX BOUNDS ff ff ff
0.0000000000000000e+00 2.3200000000000000e+02
0.0000000000000000e+00 2.3200000000000000e+02
0.0000000000000000e+00 2.3200000000000000e+02
ITEM: ATOMS id xu yu zu fx fy fz
1        113.154225126339        115.991813748178          108.6651469325      -0.542645573972877      -0.656590716653263     -0.0309196744295668
2        118.824253821508        115.985995223071        108.653622981437      -0.946116555482021       0.991475209656229     -0.0751423129843902
3        117.358840026267        115.944290145115        108.613349032351        3.55083821812104         4.1166106012634     0.00820051372247794
4        114.560774899473        115.974654803459        108.646556860524      -0.326308108136828       -1.95766761098232     0.00821908162762085
5        116.733958182985         114.78260786538        108.689737015216       -4.40729595327568       -3.54099374833994     -0.0190144490370103
6        115.253057531425        114.726523149269        108.635084540557        2.55291983341497       0.782487061282267       0.174175618374794
7        115.223629295281        117.174309635641        108.608141430254        2.56403221298226         1.8573667853635      0.0863838622069146
8        116.684920008182        117.210784413343        108.643183966761     -0.0541746190366199        1.39220282655861    -0.00164465307715257
9         114.50196288733        113.532652207747        108.641059966572      -0.192267771420908        1.19502118670979     -0.0100032384849384
10        117.493340824699        113.584188745854        108.689641341968      -0.120224603679442        2.05108580616853      -0.010862445183262
11         114.47698214353         118.38546424465        108.620972592757        4.36155841549357      -0.140631898155567      -0.127980287322223
12        117.486961854267         118.45560255779        108.688155743611       -4.51706232092448       -3.24722306858041     0.00213338454491124
13        113.102784635727        113.537917963389        108.632327375491       0.955591138442763        1.95343683559655     -0.0236686769451131
14        113.170564824047        118.452670778208        108.704970015933        -3.8383888638047       -2.40640111664729       0.130273694477826
15         118.88283919284        113.600063260244        108.688724966672       -2.05982797697432       -3.37084726997024       0.227176804875408
16        118.804448680114        118.368645379199        108.615196908618        2.31368083174422       0.286726394880143      -0.135357831658851
17        112.440312463856        117.207836569357        108.670370625717       0.395932627968843        1.10116349935557      0.0486020090506054
18        112.422519322112        114.764570078436        108.650144263373       0.455684884889793       0.920656969231205       0.012345964855911
19        119.497658454707        114.729464370287        108.607891258014         3.6252033436744        5.01831948692957     -0.0964682833340069
20        119.577966471506        117.235245739437        108.690632496477        -2.1165207458031       -2.88264373076822     -0.0509295393522127
21        120.943418418277        114.812718481475        108.645137395652       -2.85713896955837       0.357609261988901      -0.081489085673359
22        120.939229750317        117.144726617642        108.643292388066       0.236867760092249       -2.20690945814955    -0.00226916922761749
23        111.018607561003        114.812440717335        108.654835887842       -1.29968317698005       -1.87381716947523     -0.0806071006259012
24        111.023762980827        117.153792939956        108.662334967682       0.965202778309417      -0.247320691343703      0.0131370118914432
25         121.56692982236        115.972200439738         108.63705736162      -0.599380907884575       0.665982954816681     0.00632196566672924
26        110.393814844625        115.987874248818        108.663978270153       0.860980128484673      -0.298606723273807    -0.00834194276168658
27        121.578083532005        118.154809627108        108.625741486181       0.807623913873529        1.27692316587032     -0.0221874370607548
28        121.630444139528        113.814963422522        108.673695852827       0.200569483642425      -0.291283442214349      0.0083373225077521
29        110.375661400391         118.19047213696        108.672700649664       0.218314157244679      -0.349207210812293    -0.00349169820663851
30        110.330096497863        113.752700424332        108.622729507603        1.81445725279358        2.79277060842861      0.0846110652470349
31        112.608179466796        112.623767444647        108.665166644553      -0.612224246433833       -1.13153915005303      0.0406485779321986
32        112.595416380433        119.352796201043        108.659166879834      -0.204290662470627       0.319721318868891      -0.016269109515859
33        119.402694078495        112.644644280174        108.679234545543     -0.0935711822534284       0.171970459409674     0.00170822656399699
34        119.337392359576        119.321134412823        108.620696152434      -0.152070522882159      -0.271783888175696    -0.00156915808309048
35        114.944199947567         112.55087393858          108.6387673747      0.0589780385098815      -0.130932845239322   -0.000305746812930259
36        114.963352226188        119.409649263646        108.664781117506      -0.707357947725345       -1.48953531263576     -0.0637134339962925
37        117.065378911086        112.618411896804        108.704240987065      -0.313530968963417      -0.707541820085439      0.0106959071077613
38         117.05704443823        119.449700471283        108.702767980699      0.0216466579804728      -0.050053560823044   -0.000735736880528291
39                     100                     100              105.656854                       0                       0                       0
40                     100                     100              102.828427                       0                       0                       0
41                     100                     100                     100                       0                       0                       0
42                     102                     102              105.656854                       0                       0                       0
43                     102                     102              102.828427                       0                       0                       0
44                     102                     102                     100                       0                       0                       0
45                     104                     100              105.656854                       0                       0                       0
46                     104                     100              102.828427                       0                       0                       0
47                     104                     100                     100                       0                       0                       0
48                     106                     102              105.656854                       0                       0                       0
49                     106                     102              102.828427                       0                       0                       0
50                     106                     102                     100                       0                       0                       0
51                     108                     100              105.656854                       0                       0                       0
52                     108                     100              102.828427                       0                       0                       0
53                     108                     100                     100                       0                       0                       0
54                     110                     102              105.656854                       0                       0                       0
55                     110                     102              102.828427                       0                       0                       0
56                     110                     102                     100                       0                       0                       0
57                     112                     100              105.656854                       0                       0                       0
58                     112                     100              102.828427                       0                       0                       0
59                     112                     100                     100                       0                       0                       0
60                     114                     102              105.656854                       0                       0                       0
61                     114                     102              102.828427                       0                       0                       0
62                     114                     102                     100                       0                       0                       0
63                     116                     100              105.656854                       0                       0                       0
64                     116                     100              102.828427                       0                       0                       0
65                     116                     100                     100                       0                       0                       0
66                     118                     102              105.656854                       0                       0                       0
67                     118                     102              102.828427                       0                       0                       0
68                     118                     102                     100                       0                       0                       0
69                     120                     100              105.656854                       0                       0                       0
70                     120                     100              102.828427                       0                       0                       0
71                     120                     100                     100                       0                       0                       0
72                     122                     102              105.656854                       0                       0                       0
73                     122                     102              102.828427                       0                       0                       0
74                     122                     102                     100                       0                       0                       0
75                     124                     100              105.656854                       0                       0                       0
76                     124                     100              102.828427                       0                       0                       0
77                     124                     100                     100                       0                       0                       0
78                     126                     102              105.656854                       0                       0                       0
79                     126                     102              102.828427                       0                       0                       0
80                     126                     102                     100                       0                       0                       0
81                     128                     100              105.656854                       0                       0                       0
82                     128                     100              102.828427                       0                       0                       0
83                     128                     100                     100                       0                       0                       0
84                     130                     102              105.656854                       0                       0                       0
85                     130                     102              102.828427                       0                       0                       0
86                     130                     102                     100                       0                       0                       0
87                     100                     104              105.656854                       0                       0                       0
88                     100                     104              102.828427                       0                       0                       0
89                     100                     104                     100                       0                       0                       0
90                     102                     106              105.656854                       0                       0                       0
91                     102                     106              102.828427                       0                       0                       0
92                     102                     106                     100                       0                       0                       0
93                     104                     104              105.656854                       0                       0                       0
94                     104                     104              102.828427                       0                       0                       0
95                     104                     104                     100                       0                       0                       0
96                     106                     106              105.656854                       0                       0                       0
97                     106                     106              102.828427                       0                       0                       0
98                     106                     106                     100                       0                       0                       0
99                     108                     104              105.656854                       0                       0                       0
100                     108                     104              102.828427                       0                       0                       0
101                     108                     104                     100                       0                       0                       0
102                     110                     106              105.656854                       0                       0                       0
103                     110                     106              102.828427                       0                       0                       0
104                     110                     106                     100                       0                       0                       0
105                     112                     104              105.656854                       0                       0                       0
106                     112                     104              102.828427                       0                       0                       0
107                     112                     104                     100                       0                       0                       0
108                     114                     106              105.656854                       0                       0                       0
109                     114                     106              102.828427                       0                       0                       0
110                     114                     106                     100                       0                       0                       0
111                     116                     104              105.656854                       0                       0                       0
112                     116                     104              102.828427                       0                       0                       0
113                     116                     104                     100                       0                       0                       0
114                     118                     106              105.656854                       0                       0                       0
115                     118                     106              102.828427                       0                       0                       0
116                     118                     106                     100                       0                       0                       0
117                     120                     104              105.656854                       0                       0                       0
118                     120                     104              102.828427                       0                       0                       0
119                     120                     104                     100                       0                       0                       0
120                     122                     106              105.656854                       0                       0                       0
121                     122                     106              102.828427                       0                       0                       0
122                     122                     106                     100                       0                       0                       0
123                     124                     104              105.656854                       0                       0                       0
124                     124                     104              102.828427                       0                       0                       0
125                     124                     104                     100                       0                       0                       0
126                     126                     106              105.656854                       0                       0                       0
127                     126                     106              102.828427                       0                       0                       0
128                     126                     106                     100                       0                       0                       0
129                     128                     104              105.656854                       0                       0                       0
130                     128                     104              102.828427                       0                       0                       0
131                     128                     104                     100                       0                       0                       0
132                     130                     106              105.656854                       0                       0                       0
133                     130                     106              102.828427                       0                       0                       0
134                     130                     106                     100                       0                       0                       0
135                     100                     108              105.656854                       0                       0                       0
136                     100                     108              102.828427                       0                       0                       0
137                     100                     108                     100                       0                       0                       0
138                     102                     110              105.656854                       0                       0                       0
139                     102                     110              102.828427                       0                       0                       0
140                     102                     110                     100                       0                       0                       0
141                     104                     108              105.656854                       0                       0                       0
142                     104                     108              102.828427                       0                       0                       0
143                     104                     108                     100                       0                       0                       0
144                     106                     110              105.656854                       0                       0                       0
145                     106                     110              102.828427                       0                       0                       0
146                     106                     110                     100                       0                       0                       0
147                     108                     108              105.656854                       0                       0                       0
148                     108                     108              102.828427                       0                       0                       0
149                     108                     108                     100                       0                       0                       0
150                     110                     110              105.656854                       0                       0                       0
151                     110                     110              102.828427                       0                       0                       0
152                     110                     110                     100                       0                       0                       0
153                     112                     108              105.656854                       0                       0                       0
154                     112                     108              102.828427                       0                       0                       0
155                     112                     108                     100                       0                       0                       0
156                     114                     110              105.656854                       0                       0                       0
157                     114                     110              102.828427                       0                       0                       0
158                     114                     110                     100                       0                       0                       0
159                     116                     108              105.656854                       0                       0                       0
160                     116                     108              102.828427                       0                       0                       0
161                     116                     108                     100                       0                       0                       0
162                     118                     110              105.656854                       0                       0                       0
163                     118                     110              102.828427                       0                       0                       0
164                     118                     110                     100                       0                       0                       0
165                     120                     108              105.656854                       0                       0                       0
166                     120                     108              102.828427                       0                       0                       0
167                     120                     108                     100                       0                       0                       0
168                     122                     110              105.656854                       0                       0                       0
169                     122                     110              102.828427                       0                       0                       0
170                     122                     110                     100                       0                       0                       0
171                     124                     108              105.656854                       0                       0                       0
172                     124                     108              102.828427                       0                       0                       0
173                     124                     108                     100                       0                       0                       0
174                     126                     110              105.656854                       0                       0                       0
175                     126                     110              102.828427                       0                       0                       0
176                     126                     110                     100                       0                       0                       0
177                     128                     108              105.656854                       0                       0                       0
178                     128                     108              102.828427                       0                       0                       0
179                     128                     108                     100                       0                       0                       0
180                     130                     110              105.656854                       0                       0                       0
181                     130                     110              102.828427                       0                       0                       0
182                     130                     110                     100                       0                       0                       0
183                     100                     112              105.656854                       0                       0                       0
184                     100                     112              102.828427                       0                       0                       0
185                     100                     112                     100                       0                       0                       0
186                     102                     114              105.656854                       0                       0                       0
187                     102                     114              102.828427                       0                       0                       0
188                     102                     114                     100                       0                       0                       0
189                     104                     112              105.656854                       0                       0                       0
190                     104                     112              102.828427                       0                       0                       0
191                     104                     112                     100                       0                       0                       0
192                     106                     114              105.656854                       0                       0                       0
193                     106                     114              102.828427                       0                       0                       0
194                     106                     114                     100                       0                       0                       0
195                     108                     112              105.656854                       0                       0                       0
196                     108                     112              102.828427                       0                       0                       0
197                     108                     112                     100                       0                       0                       0
198                     110                     114              105.656854                       0                       0                       0
199                     110                     114              102.828427                       0                       0                       0
200                     110                     114                     100                       0                       0                       0
201                     112                     112              105.656854                       0                       0                       0