ITEM: TIMESTEP
0
ITEM: NUMBER OF ATOMS
422
ITEM: BOX BOUNDS pp pp pp
0.0000000000000000e+00 3.2000000000000000e+01
0.0000000000000000e+00 3.2000000000000000e+01
0.0000000000000000e+00 3.2000000000000000e+01
ITEM: ATOMS id xu yu zu fx fy fz
1        13.1459321938386        17.6835208156773                 8.65685     -0.0391731193931306     -0.0145198828962813        0.11473571098283
2        18.8274848400711        17.6892262416344                 8.65685      0.0391379769044732     -0.0146966434032936       0.118752414686372
3         17.402344993917         17.687795112765                 8.65685     -0.0347520757596937     -0.0181351574441131       0.149599699873435
4         14.571072038949        17.6849519429358                 8.65685      0.0338234636293769     -0.0186418037587847       0.152706562760771
5        16.7010751677692        16.4497248501637                 8.65685    -0.00738009206223592    -0.00775796974862602     0.00603106479922193
6        15.2748269908674        16.4482926087119                 8.65685     0.00756721501198655    -0.00805511234578922      0.0065816600491916
7        15.2723418650276        18.9230222053877                 8.65685      0.0201321135734319      0.0150727271752739      0.0327862946355502
8        16.6985900414216        18.9244544465825                 8.65685     -0.0194960288765187      0.0143906942162718      0.0307452293529238
9        14.5177569207574        15.2484462411751                 8.65685      0.0127890304078728      0.0298085970529475       0.055199189383045
10        17.4605534827313        15.2514014038861                 8.65685     -0.0130727296476134      0.0293016703926997      0.0539207385694218
11        14.5128635507729         20.121345651893                 8.65685     0.00520696171900979     -0.0054201819571866      0.0153218178776801
12        17.4556601106552        20.1243008141789                 8.65685    -0.00540826754814708    -0.00543669318541541      0.0148184586141965
13        13.1273112602358        15.2624445878976                 8.65685     -0.0153551389324403      0.0215353624198576      0.0361128371906809
14        13.1224488081137        20.1045547622743                 8.65685    -0.00611673776651805    -0.00338346144100598     0.00797502731563417
15         18.850968226168        15.2681922935721                 8.65685       0.015205869398276      0.0219300413783462      0.0368213998052656
16        18.8461057714963        20.1103024705805                 8.65685     0.00615818738070313    -0.00369578003364201     0.00867512593487064
17         12.426795838139        18.8943199436399                 8.65685     -0.0131726726476521     0.00919273274873227      0.0166663051588091
18        12.4292290587396        16.4712798150634                 8.65685    -0.00489804160073068     -0.0049553494997646     0.00101615169366764
19        19.5466211966922        16.4784271122721                 8.65685     0.00523259980717957    -0.00525769295883899     0.00152659402706987
20        19.5441879750283        18.9014672429596                 8.65685      0.0138864950618337     0.00963831379146849        0.01776860476818
21        20.9551350226241        16.5244350858224                 8.65685      -0.010368277538254     -0.0131717981463067      0.0160983787285081
22        20.9527913622507        18.8582882295758                 8.65685     -0.0253897423861752      0.0209305540482983       0.054575219120706
23        11.0206256731611        16.5144588294926                 8.65685      0.0103043637729815     -0.0133738958221969      0.0164896849236562
24        11.0182820131454        18.8483119722736                 8.65685      0.0259495185460322      0.0217149885125856      0.0578947310729345
25        21.5867264607395        17.6919970781177                 8.65685     -0.0112099067421097      -0.008345634141276        0.06381969604515
26        10.3866905744716        17.6807499786644                 8.65685       0.010583574907764    -0.00873194796148812       0.064548156463275
27         21.609196045824        19.8859221409264                 8.65685    -0.00153224579273282     0.00220497573778211     -0.0015604961467977
28        21.6136022867001        15.4981215696947                 8.65685    -0.00266311737042035     0.00936036146029805     0.00659200255352178
29        10.3598147507275        19.8746254872963                 8.65685     0.00144849100711494     0.00245945914163167    -0.00129222156989602
30        10.3642209902605        15.4868249167297                 8.65685     0.00259030342985357     0.00965462746507856     0.00719419588248513
31        12.5998668222426        14.3154548000933                 8.65685    -0.00291067562220646    0.000577282880036053     -0.0048156111802736
32        12.5931035005993        21.0504833212092                 8.65685    -0.00152811184042494   -0.000893500708527599    -0.00753570130436158
33        19.3803135329519        14.3222637346313                 8.65685     0.00298624146025966    0.000615644160916715    -0.00459333247521737
34        19.3735502071424         21.057292260389                 8.65685     0.00162458948871793   -0.000980955791037135     -0.0072727578627714
35        14.9622865728669        14.2689605638796                 8.65685     0.00433454901957356     0.00115372070042195     0.00213231096984942
36         14.955425108682        21.1017221461408                 8.65685     0.00249073815061063    -0.00232095074630233    -0.00311887562134658
37        17.0179919240215        14.2710249097393                 8.65685    -0.00430385939736627     0.00112802600101509     0.00176879621029378
38         17.011130457531        21.1037864905846                 8.65685    -0.00246863827396617    -0.00220375340269433    -0.00345597542661492
39                       0                       0                5.656854                       0                       0                       0
40                       0                       0                2.828427                       0                       0                       0
41                       0                       0                       0                       0                       0                       0
42                       2                       2                5.656854                       0                       0                       0
43                       2                       2                2.828427                       0                       0                       0
44                       2                       2                       0                       0                       0                       0
45                       4                       0                5.656854    3.62841053553845e-10   -6.13739010132791e-10    1.56026312548794e-10
46                       4                       0                2.828427    3.49727889638871e-10   -6.66777540796098e-10    3.20506517187391e-10
47                       4                       0                       0                       0                       0                       0
48                       6                       2                5.656854    1.14793978569295e-09    1.88217398150439e-09     6.2516636439057e-10
49                       6                       2                2.828427                       0                       0                       0
50                       6                       2                       0                       0                       0                       0
51                       8                       0                5.656854    4.84646506310879e-09   -1.33716849280369e-08    3.40341955781556e-09
52                       8                       0                2.828427    5.88318072173508e-09   -1.61925613465237e-08     8.0436903224324e-09
53                       8                       0                       0    3.22482897465946e-11   -7.68768189954229e-11    6.07799513022911e-11
54                      10                       2                5.656854    8.13778540530227e-09    1.65574171741984e-08    8.24420190395159e-09
55                      10                       2                2.828427    2.27926249983524e-10    6.64602867841704e-10    4.77574133474502e-10
56                      10                       2                       0                       0                       0                       0
57                      12                       0                5.656854    8.98155407197532e-09   -5.96679450155141e-08    1.55519283571633e-08
58                      12                       0                2.828427    1.06234873515396e-08    -7.0164984987166e-08    3.53147862490258e-08
59                      12                       0                       0    1.35711894834969e-10   -9.94679015435049e-10    7.52723307340148e-10
60                      14                       2                5.656854    5.02669930260559e-09    3.91998185322259e-08    1.97082172926895e-08
61                      14                       2                2.828427    1.75187621183829e-10    1.78723727431267e-09    1.28143052337019e-09
62                      14                       2                       0                       0                       0                       0
63                      16                       0                5.656854    1.30295116104868e-11   -8.94321130211247e-08    2.34380994093323e-08
64                      16                       0                2.828427    3.94309982379744e-12   -1.03353210204755e-07    5.23591445911186e-08
65                      16                       0                       0   -3.20448021307616e-13   -1.55631005909122e-09    1.18210480162094e-09
66                      18                       2                5.656854   -5.12992602087577e-09    3.88317149206871e-08    1.96341984451857e-08
67                      18                       2                2.828427   -1.79082172360073e-10    1.77506189388941e-09    1.27627152247782e-09
68                      18                       2                       0                       0                       0                       0
69                      20                       0                5.656854   -9.02039571445956e-09   -5.96447608700323e-08    1.55478405604635e-08
70                      20                       0                2.828427    -1.0670132604184e-08   -7.01274596179681e-08    3.53017373277018e-08
71                      20                       0                       0   -1.37264126886763e-10   -9.94982151094385e-10    7.53140826893104e-10
72                      22                       2                5.656854   -8.09523077416494e-09    1.61696134577966e-08    8.14121050953201e-09
73                      22                       2                2.828427   -2.05342942005143e-10    7.08406021753122e-10     4.4612298106296e-10
74                      22                       2                       0                       0                       0                       0
75                      24                       0                5.656854   -4.83695869310035e-09   -1.32928501293709e-08     3.3840835920272e-09
76                      24                       0                2.828427   -5.87549169565048e-09     -1.610147517046e-08    8.00068093002077e-09
77                      24                       0                       0   -3.22091439634053e-11    -7.6182659428992e-11    6.02686164129713e-11
78                      26                       2                5.656854   -1.12637240143965e-09    1.83168025318258e-09    6.10478935933263e-10
79                      26                       2                2.828427                       0                       0                       0
80                      26                       2                       0                       0                       0                       0
81                      28                       0                5.656854    -3.5998745491827e-10   -6.06486576798849e-10    1.54263338408786e-10
82                      28                       0                2.828427   -3.49194600917643e-10   -6.61915247880566e-10    3.18466011171304e-10
83                      28                       0                       0                       0                       0                       0
84                      30                       2                5.656854                       0                       0                       0
85                      30                       2                2.828427                       0                       0                       0
86                      30                       2                       0                       0                       0                       0
87                       0                       4                5.656854                       0                       0                       0
88                       0                       4                2.828427                       0                       0                       0
89                       0                       4                       0                       0                       0                       0
90                       2                       6                5.656854    1.50104568093677e-08    1.62992092063321e-08    5.07725211081415e-09
91                       2                       6                2.828427    4.39522047187552e-10    4.71844981765033e-10    2.95064490797829e-10
92                       2                       6                       0                       0                       0                       0
93                       4                       4                5.656854    1.16536125773701e-09    1.84310103866237e-09    4.85425788734075e-10
94                       4                       4                2.828427    1.15583260708232e-09    1.86055316930776e-09     9.6980151677444e-10
95                       4                       4                       0                       0                       0                       0
96                       6                       6                5.656854    3.83456851046046e-07    6.57533660998317e-07     2.0828413344237e-07
97                       6                       6                2.828427    1.29504818963296e-08    2.20322650566034e-08    1.35245406371272e-08
98                       6                       6                       0    5.37706708431311e-09    9.17735388040408e-09     8.4826564951582e-09
99                       8                       4                5.656854    1.20208445102859e-08    3.17838356734469e-08    8.51570762296841e-09
100                       8                       4                2.828427    1.44960737014119e-08    3.80367560296718e-08    1.98225116043881e-08
101                       8                       4                       0    1.03849443195521e-10    3.29581815711172e-10    2.61220485651093e-10
102                      10                       6                5.656854    2.05908701241145e-06    6.93280974474324e-06    2.28246212497841e-06
103                      10                       6                2.828427    5.73935250366883e-08    1.90946129145345e-07    1.21034353420501e-07
104                      10                       6                       0    2.23889850411173e-08    7.46009511580159e-08    6.97871111055302e-08
105                      12                       4                5.656854    2.24199810695563e-08    1.45854275074036e-07    3.99614684099362e-08
106                      12                       4                2.828427    2.52972749502025e-08    1.61861907271505e-07    8.57574641268482e-08
107                      12                       4                       0    2.88991126432127e-10    2.03608407283543e-09    1.62952585996462e-09
108                      14                       6                5.656854    1.22670282627634e-06    1.84401726616962e-05    6.21109658870122e-06
109                      14                       6                2.828427    3.36930881885248e-08    4.67753849120977e-07     3.0276624327627e-07
110                      14                       6                       0    1.30826509186584e-08    1.70725312842775e-07    1.62388253928524e-07
111                      16                       4                5.656854   -2.15572216288493e-10    2.17700119898548e-07    6.00737265374098e-08
112                      16                       4                2.828427   -2.35020530670161e-10    2.37597053187461e-07    1.26762017849939e-07
113                      16                       4                       0   -3.11700126541433e-12    3.16808704631594e-09    2.54511682765656e-09
114                      18                       6                5.656854   -1.25877990247483e-06    1.83308925045233e-05    6.17230112522146e-06
115                      18                       6                2.828427   -3.45160077356874e-08    4.65308569295543e-07    3.01093625732684e-07
116                      18                       6                       0   -1.33899930253357e-08    1.69959644639458e-07    1.61614822265294e-07
117                      20                       4                5.656854   -2.24483455975954e-08    1.44202030385633e-07    3.94923948559267e-08
118                      20                       4                2.828427   -2.53489095568283e-08    1.60189875498363e-07    8.48377454027521e-08
119                      20                       4                       0   -2.90225081416224e-10    2.01758380553035e-09    1.61400547280371e-09
120                      22                       6                5.656854   -2.03702362041638e-06    6.80903380555983e-06    2.24009829153661e-06
121                      22                       6                2.828427   -5.68874128963826e-08    1.87915330767833e-07    1.19032280212203e-07
122                      22                       6                       0   -2.22402484482416e-08    7.35790658501271e-08    6.87857292777676e-08
123                      24                       4                5.656854   -1.18199481503502e-08    3.10997400357239e-08    8.32723688524636e-09
124                      24                       4                2.828427   -1.42772044750776e-08    3.72820145986362e-08     1.9417233643898e-08
125                      24                       4                       0    -1.0257217129155e-10    3.23710978997774e-10    2.56365405349557e-10
126                      26                       6                5.656854   -3.74199588529763e-07    6.39430692870719e-07     2.0237461262503e-07
127                      26                       6                2.828427   -1.26691447355952e-08    2.14802588186489e-08    1.31746147413219e-08
128                      26                       6                       0   -5.27631569496762e-09    8.97559731462534e-09    8.28881207227179e-09
129                      28                       4                5.656854     -1.134189780099e-09    1.78923154151936e-09    4.70877124261769e-10
130                      28                       4                2.828427   -1.12698172801212e-09    1.80956904706765e-09    9.42445685014176e-10
131                      28                       4                       0                       0                       0                       0
132                      30                       6                5.656854   -1.45347385079171e-08    1.57552576879848e-08    4.90308879763087e-09
133                      30                       6                2.828427   -4.26643451782078e-10    4.57295277266436e-10     2.8565926343395e-10
134                      30                       6                       0                       0                       0                       0
135                       0                       8                5.656854    8.37790825170181e-11    3.44620914547058e-09    1.32379258455395e-09
136                       0                       8                2.828427    6.80561838024535e-11    2.97658286706733e-09    2.31552564827301e-09
137                       0                       8                       0                       0                       0                       0
138                       2                      10                5.656854    8.81610811680601e-07    6.02234076723222e-07    3.04431889257093e-07
139                       2                      10                2.828427    2.83594567693514e-08    1.93988422788761e-08    1.88442165472869e-08
140                       2                      10                       0    1.09677477134307e-08    7.50919197340953e-09    1.09704375835672e-08
141                       4                       8                5.656854    1.69623414822613e-07    1.86540071912034e-07    7.25865594431959e-08
142                       4                       8                2.828427    1.71066259906465e-07    1.87117899891966e-07    1.40578072685776e-07
143                       4                       8                       0     2.2947712956217e-09    2.50563777229773e-09    2.80164225675683e-09
144                       6                      10                5.656854    4.92161105747864e-05    5.60502505998114e-05    2.94287071559552e-05
145                       6                      10                2.828427    9.47693718011112e-07    1.06060227942512e-06    1.06557194607867e-06
146                       6                      10                       0    2.68166980709116e-07    2.95212106041053e-07    4.32838274299322e-07
147                       8                       8                5.656854    2.75938692355127e-06    5.45082458700066e-06    2.20936712757087e-06
148                       8                       8                2.828427    2.00152639198509e-06    3.87291011007238e-06    3.01543500008685e-06
149                       8                       8                       0    2.04148854240146e-08    3.86536516162121e-08     4.4105218405593e-08
150                      10                      10                5.656854    0.000430158890280555     0.00105100253970268    0.000596086156314702
151                      10                      10                2.828427    5.36885135958846e-06    1.27247380914161e-05    1.35873201548188e-05
152                      10                      10                       0    1.06071152022642e-06    2.41379768344237e-06    3.70668008082578e-06
153                      12                       8                5.656854    6.49804144563648e-06    3.43521665753779e-05    1.47159876314866e-05
154                      12                       8                2.828427    3.79996568902417e-06    1.92187624365891e-05    1.56645050398474e-05
155                      12                       8                       0    3.21430053992179e-08    1.54655691422699e-07    1.83025525780488e-07
156                      14                      10                5.656854    0.000199640121774128     0.00317691100155578     0.00191857202562179
157                      14                      10                2.828427    2.55366674797826e-06     3.2024359958994e-05    3.60449574113171e-05
158                      14                      10                       0    5.19682507246242e-07    5.30688303767305e-06    8.49538981311394e-06
159                      16                       8                5.656854   -5.62325221696461e-08    5.13415879964932e-05    2.23470711366344e-05
160                      16                       8                2.828427   -3.12348589494277e-08    2.79081496361482e-05    2.31002190757954e-05
161                      16                       8                       0   -2.50259224261571e-10    2.18359727345644e-07    2.62070867995893e-07
162                      18                      10                5.656854   -0.000206955826702544      0.0031596686195833     0.00190679874911398
163                      18                      10                2.828427   -2.62750278341632e-06    3.18830585881397e-05    3.58637215578174e-05
164                      18                      10                       0    -5.3200388068011e-07    5.28766576200077e-06    8.46018696708563e-06
165                      20                       8                5.656854    -6.5009547505031e-06    3.39184209065364e-05    1.45184543955595e-05
166                      20                       8                2.828427   -3.80696340856872e-06     1.9015454310099e-05    1.54874749332911e-05
167                      20                       8                       0   -3.22396699084378e-08    1.53299148731174e-07    1.81300978929307e-07
168                      22                      10                5.656854   -0.000424635692998326     0.00103022797963327    0.000583388925313637
169                      22                      10                2.828427   -5.32025603646495e-06    1.25227510850111e-05    1.33536150998528e-05
170                      22                      10                       0   -1.05414667061454e-06    2.38296200569237e-06    3.65508482946017e-06
171                      24                       8                5.656854   -2.70396753484945e-06    5.31551456135276e-06    2.15211253103096e-06
172                      24                       8                2.828427   -1.96774656875289e-06    3.78973243440923e-06    2.94761258567001e-06
173                      24                       8                       0   -2.01351238569741e-08     3.7951065541848e-08    4.32621823782698e-08
174                      26                      10                5.656854   -4.78156370959553e-05    5.42887827287963e-05    2.84574563433361e-05
175                      26                      10                2.828427   -9.25218876783995e-07    1.03237504132185e-06    1.03568413510105e-06
176                      26                      10                       0   -2.62981419302242e-07    2.88661491909091e-07    4.22672424673204e-07
177                      28                       8                5.656854   -1.64437409255773e-07    1.80427626946562e-07    7.01255118866031e-08
178                      28                       8                2.828427   -1.66380460152686e-07     1.8158336919539e-07     1.3626778321074e-07
179                      28                       8                       0    -2.2403022847697e-09     2.4408962252763e-09    2.72615059897907e-09
180                      30                      10                5.656854    -8.5059390482268e-07    5.80780657108447e-07    2.93147772692477e-07
181                      30                      10                2.828427   -2.74599390921812e-08    1.87703081887803e-08    1.82087444720657e-08
182                      30                      10                       0   -1.06685932535893e-08    7.29609538547238e-09    1.06425180118557e-08
183                       0                      12                5.656854    1.91216489298052e-09    4.07759069359817e-08    2.87307015260966e-08
184                       0                      12                2.828427    2.00826367922595e-09    4.71202341547318e-08    6.38641668869144e-08
185                       0                      12                       0    2.40138806335035e-11    6.30953864895806e-10    1.31179575163236e-09
186                       2                      14                5.656854    1.13829687137035e-05    3.25018528131418e-06    3.94642212811729e-06
187                       2                      14                2.828427    2.86835516508773e-07    8.48996265817868e-08    1.92148297483745e-07
188                       2                      14                       0    1.03934741857525e-07    3.15448111513157e-08     1.0176045209621e-07
189                       4                      12                5.656854    7.94337364052272e-06    4.70723085864613e-06    3.52878524512959e-06
190                       4                      12                2.828427    5.08905584264058e-06    3.05000977194551e-06    4.31394494243065e-06
191                       4                      12                       0    4.64945045732673e-08    2.81395113797373e-08    5.72687083924742e-08
192                       6                      14                5.656854     0.00160165895675664    0.000729517778220499     0.00101040927135685
193                       6                      14                2.828427    1.65040770921806e-05    7.87722935616673e-06     1.9464841879711e-05
194                       6                      14                       0    2.78446431058877e-06    1.37108704181829e-06    4.66188860477274e-06
195                       8                      12                5.656854    0.000310775434955135    0.000378584820584457    0.000303664165075551
196                       8                      12                2.828427    9.44539590235903e-05    0.000109614935290867     0.00016412064445969
197                       8                      12                       0     4.7782958524137e-07    5.33799930169485e-07    1.13760979048983e-06
198                      10                      14                5.656854      0.0103328664086711     0.00321698507172601   -0.000609331782477093
199                      10                      14                2.828427    0.000102403463227116     0.00012274616744289    0.000334496081886351
200                      10                      14                       0    1.08353761156155e-05     1.2114342242794e-05    4.44395410968884e-05
201                      12                      12                5.656854    0.000824087051442546     0.00291054236941898     0.00269709796444216