ITEM: TIMESTEP
0
ITEM: NUMBER OF ATOMS
422
ITEM: BOX BOUNDS ff ff ff
0.0000000000000000e+00 2.3200000000000000e+02
0.0000000000000000e+00 2.3200000000000000e+02
0.0000000000000000e+00 2.3200000000000000e+02
ITEM: ATOMS id xu yu zu fx fy fz
1        113.132713979183        115.970302601021        108.643635785344    0.000905496917507491    0.000383778632245828      0.0289392281881806
2         118.85299374738        116.014735148944        108.682362907309    -0.00167051973613249    -0.00156343150302268     -0.0987648952213814
3        117.394321396802         115.97977151565        108.648830402885   -0.000804083617811281    0.000113440693848813     -0.0182158987150708
4        114.523739111882        115.937619015869        108.609521072933     -0.0027417193554979    0.000961212860385832       0.127119069899607
5        116.662308995574        114.710958677969        108.618087827805     0.00364285588533765    0.000462132975626292      0.0914873888953788
6        115.315654787156        114.789120405001        108.697681796289    0.000284491463399159    -0.00136276771787211      -0.171008729481457
7        115.322195750984        117.272876091344        108.706707885957    -0.00136291682319005     0.00234726395318519       -0.10611619073236
8        116.663680373812        117.189544778973         108.62194433239     0.00340145677894512    0.000258552127514048      0.0692679779465893
9        114.470571146514        113.501260466932        108.609668225757     -0.0011226142500737   -0.000993765569018256        0.13240262538339
10        117.445668468024        113.536516389179        108.641968985293   -0.000299623368479222   -0.000883123646235081     -0.0252311350656566
11        114.533970072446        118.442452173566        108.677960521673    0.000562844023561145    -0.00100901363025953     -0.0176088952939317
12        117.407445101008        118.376085804531        108.608638990352   -0.000210613602696502    0.000548123493765789     -0.0080663734593729
13        113.139294448967        113.574427776629        108.668837188732    -0.00182111858410422     0.00072393218702948      -0.045008164471518
14        113.102030949406        118.384136903566        108.636436141292   -0.000341864176271914     0.00163521839963856      0.0634915933153187
15        118.816953873382        113.534177940786        108.622839647214   -0.000855827578747626     0.00224583125424957       0.035807603996293
16        118.806274345291        118.370471044375        108.617022573795    -0.00102213791850241    -0.00154897998253474      0.0100831306825915
17        112.450889134282        117.218413239783        108.680947296143     0.00201485943556058    -0.00234201839170436      -0.157395365045975
18        112.471498998646         114.81354975497        108.699123939907     0.00132918793322526   -0.000625978877806061      -0.119296271106525
19        119.510523683297        114.742329598876        108.620756486604     0.00157942665303513    -0.00138917089050877      0.0307022270395761
20        119.497511804922        117.154791072854        108.610177829894    -0.00322876229419838     0.00322641324023226       0.146248550544213
21        120.947479203353        114.816779266551        108.649198180729   -0.000533083410722232   -0.000450532262148606      0.0238339310407468
22        120.985802364282        117.191299231607        108.689865002031     0.00960120883050402   -0.000465877907009524      -0.247719453863031
23        111.025368384047        114.819201540379        108.661596710886    -0.00262380611917018   -0.000854760145638615       0.247431231965278
24         111.00291035007        117.132940309198        108.641482336925    -0.00267575276593101     0.00567890438818239       0.310688904557794
25        121.620768846863        116.026039464241        108.690896386123    -0.00195694557322798   -0.000887490789070659      0.0622738504643681
26        110.412779050903        116.006838455096        108.682942476431    0.000155952510415992    -0.00229559249618253      -0.176511581465275
27        121.649964585602        118.226690680705        108.697622539778    -0.00262351305607755     0.00104382405927491      0.0852940424183229
28        121.602180033305        113.786699316299        108.645431746605    0.000280576697072756    0.000224091827554316     -0.0125154723503378
29        110.343668456908        118.158479193476         108.64070770618   -0.000240052672509387   -0.000233304025460634      -0.104578306818807
30        110.375614591583        113.798218518052        108.668247601323    0.000203033671909377   -0.000693012815956344      -0.086549677295207
31        112.578651110355        112.594239088206        108.635638288112    0.000187458179283716    -0.00049304841767421      0.0113914405389923
32        112.567911969971        119.325291790581        108.631662469372   -4.93287450130489e-06   -7.30578491952791e-05     -0.0138518128208539
33        119.419305796504        112.661255998184        108.695846263553    0.000510512829166964    -0.00133333688064561     -0.0201544391210381
34        119.420358277844         119.40410033109        108.703662070701    0.000483989879862326    0.000815422667082677     -0.0131586077850685
35        114.974265731301        112.580939722313        108.668833158434     0.00117028537655364    -0.00183325995132104     -0.0384797796141525
36         114.92635383085        119.372650868309        108.627782722168   -3.66514473943602e-05    0.000775702070288095      0.0140933964340879
37        117.052595969313        112.605628955031        108.691458045292   -8.52537950500321e-05    -0.00017038269544846    -0.00388203034039802
38        116.975330863523        119.367986896577        108.621054405992   -5.18440450505921e-05     5.8061614609064e-05    -0.00644311324331126
39                     100                     100              105.656854                       0                       0                       0
40                     100                     100              102.828427                       0                       0                       0
41                     100                     100                     100                       0                       0                       0
42                     102                     102              105.656854                       0                       0                       0
43                     102                     102              102.828427                       0                       0                       0
44                     102                     102                     100                       0                       0                       0
45                     104                     100              105.656854                       0                       0                       0
46                     104                     100              102.828427                       0                       0                       0
47                     104                     100                     100                       0                       0                       0
48                     106                     102              105.656854                       0                       0                       0
49                     106                     102              102.828427                       0                       0                       0
50                     106                     102                     100                       0                       0                       0
51                     108                     100              105.656854                       0                       0                       0
52                     108                     100              102.828427                       0                       0                       0
53                     108                     100                     100                       0                       0                       0
54                     110                     102              105.656854                       0                       0                       0
55                     110                     102              102.828427                       0                       0                       0
56                     110                     102                     100                       0                       0                       0
57                     112                     100              105.656854                       0                       0                       0
58                     112                     100              102.828427                       0                       0                       0
59                     112                     100                     100                       0                       0                       0
60                     114                     102              105.656854                       0                       0                       0
61                     114                     102              102.828427                       0                       0                       0
62                     114                     102                     100                       0                       0                       0
63                     116                     100              105.656854                       0                       0                       0
64                     116                     100              102.828427                       0                       0                       0
65                     116                     100                     100                       0                       0                       0
66                     118                     102              105.656854                       0                       0                       0
67                     118                     102              102.828427                       0                       0                       0
68                     118                     102                     100                       0                       0                       0
69                     120                     100              105.656854                       0                       0                       0
70                     120                     100              102.828427                       0                       0                       0
71                     120                     100                     100                       0                       0                       0
72                     122                     102              105.656854                       0                       0                       0
73                     122                     102              102.828427                       0                       0                       0
74                     122                     102                     100                       0                       0                       0
75                     124                     100              105.656854                       0                       0                       0
76                     124                     100              102.828427                       0                       0                       0
77                     124                     100                     100                       0                       0                       0
78                     126                     102              105.656854                       0                       0                       0
79                     126                     102              102.828427                       0                       0                       0
80                     126                     102                     100                       0                       0                       0
81                     128                     100              105.656854                       0                       0                       0
82                     128                     100              102.828427                       0                       0                       0
83                     128                     100                     100                       0                       0                       0
84                     130                     102              105.656854                       0                       0                       0
85                     130                     102              102.828427                       0                       0                       0
86                     130                     102                     100                       0                       0                       0
87                     100                     104              105.656854                       0                       0                       0
88                     100                     104              102.828427                       0                       0                       0
89                     100                     104                     100                       0                       0                       0
90                     102                     106              105.656854                       0                       0                       0
91                     102                     106              102.828427                       0                       0                       0
92                     102                     106                     100                       0                       0                       0
93                     104                     104              105.656854                       0                       0                       0
94                     104                     104              102.828427                       0                       0                       0
95                     104                     104                     100                       0                       0                       0
96                     106                     106              105.656854                       0                       0                       0
97                     106                     106              102.828427                       0                       0                       0
98                     106                     106                     100                       0                       0                       0
99                     108                     104              105.656854                       0                       0                       0
100                     108                     104              102.828427                       0                       0                       0
101                     108                     104                     100                       0                       0                       0
102                     110                     106              105.656854                       0                       0                       0
103                     110                     106              102.828427                       0                       0                       0
104                     110                     106                     100                       0                       0                       0
105                     112                     104              105.656854                       0                       0                       0
106                     112                     104              102.828427                       0                       0                       0
107                     112                     104                     100                       0                       0                       0
108                     114                     106              105.656854                       0                       0                       0
109                     114                     106              102.828427                       0                       0                       0
110                     114                     106                     100                       0                       0                       0
111                     116                     104              105.656854                       0                       0                       0
112                     116                     104              102.828427                       0                       0                       0
113                     116                     104                     100                       0                       0                       0
114                     118                     106              105.656854                       0                       0                       0
115                     118                     106              102.828427                       0                       0                       0
116                     118                     106                     100                       0                       0                       0
117                     120                     104              105.656854                       0                       0                       0
118                     120                     104              102.828427                       0                       0                       0
119                     120                     104                     100                       0                       0                       0
120                     122                     106              105.656854                       0                       0                       0
121                     122                     106              102.828427                       0                       0                       0
122                     122                     106                     100                       0                       0                       0
123                     124                     104              105.656854                       0                       0                       0
124                     124                     104              102.828427                       0                       0                       0
125                     124                     104                     100                       0                       0                       0
126                     126                     106              105.656854                       0                       0                       0
127                     126                     106              102.828427                       0                       0                       0
128                     126                     106                     100                       0                       0                       0
129                     128                     104              105.656854                       0                       0                       0
130                     128                     104              102.828427                       0                       0                       0
131                     128                     104                     100                       0                       0                       0
132                     130                     106              105.656854                       0                       0                       0
133                     130                     106              102.828427                       0                       0                       0
134                     130                     106                     100                       0                       0                       0
135                     100                     108              105.656854                       0                       0                       0
136                     100                     108              102.828427                       0                       0                       0
137                     100                     108                     100                       0                       0                       0
138                     102                     110              105.656854                       0                       0                       0
139                     102                     110              102.828427                       0                       0                       0
140                     102                     110                     100                       0                       0                       0
141                     104                     108              105.656854                       0                       0                       0
142                     104                     108              102.828427                       0                       0                       0
143                     104                     108                     100                       0                       0                       0
144                     106                     110              105.656854                       0                       0                       0
145                     106                     110              102.828427                       0                       0                       0
146                     106                     110                     100                       0                       0                       0
147                     108                     108              105.656854                       0                       0                       0
148                     108                     108              102.828427                       0                       0                       0
149                     108                     108                     100                       0                       0                       0
150                     110                     110              105.656854                       0                       0                       0
151                     110                     110              102.828427                       0                       0                       0
152                     110                     110                     100                       0                       0                       0
153                     112                     108              105.656854                       0                       0                       0
154                     112                     108              102.828427                       0                       0                       0
155                     112                     108                     100                       0                       0                       0
156                     114                     110              105.656854                       0                       0                       0
157                     114                     110              102.828427                       0                       0                       0
158                     114                     110                     100                       0                       0                       0
159                     116                     108              105.656854                       0                       0                       0
160                     116                     108              102.828427                       0                       0                       0
161                     116                     108                     100                       0                       0                       0
162                     118                     110              105.656854                       0                       0                       0
163                     118                     110              102.828427                       0                       0                       0
164                     118                     110                     100                       0                       0                       0
165                     120                     108              105.656854                       0                       0                       0
166                     120                     108              102.828427                       0                       0                       0
167                     120                     108                     100                       0                       0                       0
168                     122                     110              105.656854                       0                       0                       0
169                     122                     110              102.828427                       0                       0                       0
170                     122                     110                     100                       0                       0                       0
171                     124                     108              105.656854                       0                       0                       0
172                     124                     108              102.828427                       0                       0                       0
173                     124                     108                     100                       0                       0                       0
174                     126                     110              105.656854                       0                       0                       0
175                     126                     110              102.828427                       0                       0                       0
176                     126                     110                     100                       0                       0                       0
177                     128                     108              105.656854                       0                       0                       0
178                     128                     108              102.828427                       0                       0                       0
179                     128                     108                     100                       0                       0                       0
180                     130                     110              105.656854                       0                       0                       0
181                     130                     110              102.828427                       0                       0                       0
182                     130                     110                     100                       0                       0                       0
183                     100                     112              105.656854                       0                       0                       0
184                     100                     112              102.828427                       0                       0                       0
185                     100                     112                     100                       0                       0                       0
186                     102                     114              105.656854                       0                       0                       0
187                     102                     114              102.828427                       0                       0                       0
188                     102                     114                     100                       0                       0                       0
189                     104                     112              105.656854                       0                       0                       0
190                     104                     112              102.828427                       0                       0                       0
191                     104                     112                     100                       0                       0                       0
192                     106                     114              105.656854                       0                       0                       0
193                     106                     114              102.828427                       0                       0                       0
194                     106                     114                     100                       0                       0                       0
195                     108                     112              105.656854                       0                       0                       0
196                     108                     112              102.828427                       0                       0                       0
197                     108                     112                     100                       0                       0                       0
198                     110                     114              105.656854                       0                       0                       0
199                     110                     114              102.828427                       0                       0                       0
200                     110                     114                     100                       0                       0                       0
201                     112                     112              105.656854                       0                       0                       0