ITEM: TIMESTEP
0
ITEM: NUMBER OF ATOMS
422
ITEM: BOX BOUNDS pp pp pp
0.0000000000000000e+00 3.2000000000000000e+01
0.0000000000000000e+00 3.2000000000000000e+01
0.0000000000000000e+00 3.2000000000000000e+01
ITEM: ATOMS id xu yu zu fx fy fz
1        13.1698212274021        16.0074098492408        8.68073903356355    -0.00549046893099816   -0.000233447904846149     0.00590393245800954
2        18.8006841992338         15.962425600797        8.63004935916264     0.00650233992671464     0.00144744799974662      0.0119213327998761
3        17.3544565940592        15.9399067129072        8.60896160014227    -0.00665541968165117     0.00286697306831593      0.0180152946875055
4        14.6150513156502         16.028931219637        8.70082927670122     0.00476954101513278    -0.00103691689256627     0.00771348103184143
5        16.7000209239774        14.7486706063719        8.65579575620817     -0.0236275333595399      0.0142051631242644      0.0397131474659722
6        15.3088786435733        14.7823442614178        8.69090165270588      0.0200645546144525      0.0125422887324007      0.0308546739202333
7        15.3122900284583        17.2629703688185        8.69679816343074      0.0204534275578995     -0.0120376823693056      0.0315062926767151
8        16.6495719272127        17.1754363323737        8.60783188579119     -0.0243255649071298     -0.0157062093298525      0.0415711884461091
9        14.5349490498548        13.5656383702725         8.6740421290974      0.0288572233143437     -0.0234215347998427       0.138034202756595
10        17.4166522297073         13.507500150862          8.612948746976     -0.0366247990276615     -0.0309122571263742       0.161561706054449
11        14.5193405969722        18.4278226980923        8.66332704619924      0.0295290045302445       0.024316464072756       0.146125938666487
12        17.4183610414962        18.3870017450199        8.61955093084101      -0.037875653013246       0.025184317728356       0.168337877894844
13        13.0965919439888        13.5317252716506        8.62613068375301     -0.0405558385780091     -0.0210580370240007       0.111823213372132
14        13.1218204747925        18.4039264289531        8.65622166667879     -0.0377832752887276      0.0173948921097121       0.106707926014614
15        18.9005560322039        13.6177800996079        8.70643780603583      0.0319137476094229      -0.013559447243296      0.0855096972476823
16        18.8070872655799        18.3712839646641        8.61783149408362      0.0436614195402552      0.0200832244656198       0.137337342137528
17        12.4291750579893        17.1966991634903        8.65922921985032     -0.0145016293866716    -0.00913865321707972      0.0192613522366034
18        12.3988950104983        14.7409457668221        8.62651595175871     -0.0160838787316815     0.00956396459574896       0.024419246897849
19        19.5199662097993        14.7517721253792        8.63019501310708       0.018672022716622      0.0108202758525854      0.0282350201880336
20        19.5896376221467         17.246916890078        8.70229964711843      0.0126163975734638    -0.00757165756981839      0.0142076603425214
21        20.9099056911269        14.7792057543253        8.61162066850287     -0.0315782715381405      0.0227891098922681      0.0686862413985543
22        20.9754516249298        17.1809484922548        8.67951026267904     -0.0246725797442201     -0.0198248777041501       0.053660124690804
23        11.0502033362551        14.8440364925866        8.68642766309402      0.0232285406877375      0.0187837951696974      0.0481602915844801
24         11.067577739217        17.1976076983453        8.70614572607164      0.0224606038990916      -0.017011256197391      0.0449084972429921
25        21.5934218958057        15.9986925131839        8.66354543506622    -0.00147459431140465    2.45166353097001e-05    -0.00240095766290248
26        10.3976407568306        15.9917001610234          8.667800182359     0.00142721547031686    0.000154005596775454    -0.00253893446895477
27        21.6161120421254        18.1928381372277        8.66376599630136     -0.0106928348154345     0.00536295329439972      0.0661042813695405
28        21.6550446759774         13.839563958972        8.69829238927726    -0.00864842535148842    -0.00401655131286368      0.0588145640148407
29        10.3631568715311        18.1779676080999        8.66019212080364      0.0103920143636319     0.00508552352536592      0.0682405809772272
30        10.4019282475299        13.8245321739991        8.69455725726937     0.00991574087719588      -0.004320245152671      0.0575173787311269
31        12.6137987621874         12.629386740038        8.67078193994472   -0.000566520082330834     -0.0005534864525102    -0.00919002248351596
32        12.5439604973961        19.3013403180061        8.60770699679682   -0.000840537991535386    0.000692086695241114    -0.00883489801242439
33         19.354496059682        12.5964462613614        8.63103252673013    0.000665951129841254   -0.000711136456952911    -0.00898222186845862
34        19.3376456104495        19.3213876636961        8.62094540330715    0.000913165075495539    0.000895062798991372    -0.00851907996297485
35        14.9405969492974        12.5472709403101        8.63516037643052    0.000881904595615136    -0.00157969582395583    -0.00757030131420151
36         14.907705201023        19.3540022384818        8.60913009234099      0.0013143713310187     0.00216194793943989    -0.00626704319578717
37        17.0257386354877        12.5787716212055        8.66459671146621   -0.000812949240921797    -0.00138550088647759    -0.00781542463064231
38        17.0338698091407        19.4265258421943        8.67958935160971   -0.000742643732484772      0.0013020659014879    -0.00794997159406781
39                       0                       0                5.656854                       0                       0                       0
40                       0                       0                2.828427                       0                       0                       0
41                       0                       0                       0                       0                       0                       0
42                       2                       2                5.656854    5.08138938355488e-10    7.15134079752787e-10    1.83716792468642e-10
43                       2                       2                2.828427                       0                       0                       0
44                       2                       2                       0                       0                       0                       0
45                       4                       0                5.656854                       0                       0                       0
46                       4                       0                2.828427                       0                       0                       0
47                       4                       0                       0                       0                       0                       0
48                       6                       2                5.656854    1.74333733581132e-08     3.4808932819648e-08    9.01531396384429e-09
49                       6                       2                2.828427    6.39538409646508e-10    1.29012091970589e-09    6.52860683287128e-10
50                       6                       2                       0                       0                       0                       0
51                       8                       0                5.656854    6.66169769671131e-10    4.26901857958461e-11    4.64167630813249e-10
52                       8                       0                2.828427    3.80752530900213e-10    7.87031938379022e-12    4.83182344791732e-10
53                       8                       0                       0                       0                       0                       0
54                      10                       2                5.656854    7.80961604297795e-08    2.97233766455046e-07    7.86576291644566e-08
55                      10                       2                2.828427    2.77116909527716e-09    1.06620372538457e-08    5.48119155419032e-09
56                      10                       2                       0     9.9595752409882e-10    4.17162816024293e-09    3.23966880788025e-09
57                      12                       0                5.656854    1.35936541970097e-09    3.33194940595088e-10     2.1824341128289e-09
58                      12                       0                2.828427    1.69094881571769e-09    3.55597476760611e-10    5.16665442798445e-09
59                      12                       0                       0                       0                       0                       0
60                      14                       2                5.656854     4.9180523671635e-08    7.45231765167117e-07    1.99799680482815e-07
61                      14                       2                2.828427    1.68310539397843e-09    2.58554830240726e-08    1.34467838875038e-08
62                      14                       2                       0    8.39277710200104e-10    1.11517661114481e-08    8.73236452181458e-09
63                      16                       0                5.656854   -1.36515307106787e-11      5.095137492931e-10    3.27188742642366e-09
64                      16                       0                2.828427    1.78983779256125e-11    5.86424279717027e-10    7.24463906605937e-09
65                      16                       0                       0                       0                       0                       0
66                      18                       2                5.656854   -5.03956962983191e-08    7.40281630924646e-07    1.98408718462166e-07
67                      18                       2                2.828427   -1.73310222497431e-09    2.56882156569719e-08    1.33576962459545e-08
68                      18                       2                       0   -8.30081131691522e-10    1.09380934710435e-08    8.57443296847193e-09
69                      20                       0                5.656854   -1.32871342827526e-09    3.42496722487719e-10    2.13996990009166e-09
70                      20                       0                2.828427   -1.51991754436477e-09    1.40211156196613e-09    4.66372237300103e-09
71                      20                       0                       0                       0                       0                       0
72                      22                       2                5.656854   -7.74339080711736e-08    2.94441189807348e-07     7.7774946283511e-08
73                      22                       2                2.828427   -2.80119236652094e-09    1.06915187362124e-08    5.48463443692744e-09
74                      22                       2                       0   -9.38540585164549e-10    3.98285025733557e-09    3.10125364093566e-09
75                      24                       0                5.656854   -6.50071374669138e-10    3.61962971913885e-11    4.53160589271945e-10
76                      24                       0                2.828427   -3.90314633328209e-10     5.6481946795994e-11    4.86302246740198e-10
77                      24                       0                       0                       0                       0                       0
78                      26                       2                5.656854   -1.72421644518332e-08    3.46693369615692e-08    8.95599769428689e-09
79                      26                       2                2.828427   -5.95003940945894e-10    1.24560442316909e-09    6.27030001439346e-10
80                      26                       2                       0                       0                       0                       0
81                      28                       0                5.656854                       0                       0                       0
82                      28                       0                2.828427                       0                       0                       0
83                      28                       0                       0                       0                       0                       0
84                      30                       2                5.656854   -5.20305611218771e-10    7.38193474146388e-10    1.89632825901616e-10
85                      30                       2                2.828427                       0                       0                       0
86                      30                       2                       0                       0                       0                       0
87                       0                       4                5.656854   -6.26732116727295e-12    2.90807534599107e-10    8.99026345995246e-11
88                       0                       4                2.828427                       0                       0                       0
89                       0                       4                       0                       0                       0                       0
90                       2                       6                5.656854    9.37112670690038e-08    8.57289286721595e-08    3.20809380048783e-08
91                       2                       6                2.828427    3.50464815999959e-09    3.16473662377844e-09    2.28997518600923e-09
92                       2                       6                       0    9.79560979735184e-10    9.12243734595734e-10    1.01367790516402e-09
93                       4                       4                5.656854    1.06926905136115e-08    1.44762461670348e-08    4.43389161348471e-09
94                       4                       4                2.828427    1.29188183031205e-08    1.76908862196283e-08    1.04403444236403e-08
95                       4                       4                       0    1.36584728262185e-10    1.88400389988001e-10    1.71508455398016e-10
96                       6                       6                5.656854    3.17292284766384e-06    4.63987691272705e-06    1.77785602229839e-06
97                       6                       6                2.828427    8.80617593059599e-08    1.26792494624743e-07    9.34168376606457e-08
98                       6                       6                       0    3.39551594065659e-08    4.80917109238493e-08    5.27168562724803e-08
99                       8                       4                5.656854    1.27820906264833e-07      2.952808991758e-07     9.2732849343255e-08
100                       8                       4                2.828427    1.30058370695493e-07     2.9791400784676e-07    1.80494045961696e-07
101                       8                       4                       0    1.77856722338404e-09    4.11573935447821e-09    3.69413076104282e-09
102                      10                       6                5.656854     2.1808596472828e-05    6.36191009974337e-05    2.56080629116006e-05
103                      10                       6                2.828427     4.5456367956856e-07     1.3025180013503e-06    1.00187083371719e-06
104                      10                       6                       0    1.37801759821739e-07    3.86856920755557e-07    4.34936077121836e-07
105                      12                       4                5.656854     2.6543583128809e-07    1.56663221901565e-06    5.06623541116794e-07
106                      12                       4                2.828427    2.39722808408665e-07    1.37124489192635e-06    8.53510197070452e-07
107                      12                       4                       0    2.97861873563705e-09    1.66249523081288e-08    1.52653285686873e-08
108                      14                       6                5.656854    1.24058638240185e-05    0.000184440112646078    7.66310029389639e-05
109                      14                       6                2.828427    2.55497173729039e-07    3.33696769673936e-06    2.64550099152897e-06
110                      14                       6                       0    7.68931718186342e-08    8.87085771285276e-07    1.02334344185754e-06
111                      16                       4                5.656854   -3.23551283307645e-09    2.36460125468424e-06    7.71713689951131e-07
112                      16                       4                2.828427   -2.58849480535115e-09    2.02557363647448e-06    1.27283694906695e-06
113                      16                       4                       0   -3.09068823005162e-11    2.40168126926563e-08    2.22422493568084e-08
114                      18                       6                5.656854   -1.27747495035136e-05    0.000182989646661998    7.59774033065527e-05
115                      18                       6                2.828427   -2.62720840728029e-07    3.31715099787749e-06    2.62751521876419e-06
116                      18                       6                       0    -7.8499848962415e-08    8.83906739335245e-07    1.01842746200338e-06
117                      20                       4                5.656854   -2.64069820077025e-07    1.54757358101445e-06    5.00146653188901e-07
118                      20                       4                2.828427   -2.38368946532868e-07    1.35584371105495e-06    8.43529912945913e-07
119                      20                       4                       0   -3.01210608454936e-09     1.6650823622462e-08    1.52412139574581e-08
120                      22                       6                5.656854   -2.14413614145607e-05     6.2792163100734e-05    2.52359189191054e-05
121                      22                       6                2.828427   -4.47620814108437e-07    1.28933549336096e-06    9.90074339491258e-07
122                      22                       6                       0     -1.362965460313e-07    3.84632288244005e-07    4.31343507534531e-07
123                      24                       4                5.656854   -1.25941253566537e-07    2.92906248548695e-07    9.17571144819434e-08
124                      24                       4                2.828427   -1.28382229343832e-07    2.96183540403339e-07    1.79096063500742e-07
125                      24                       4                       0   -1.75411779129929e-09    4.09020763307443e-09    3.66536105665191e-09
126                      26                       6                5.656854   -3.16823155409221e-06    4.68214387746313e-06    1.78704552322477e-06
127                      26                       6                2.828427   -8.78394476809217e-08    1.27843612859875e-07    9.39115164635961e-08
128                      26                       6                       0   -3.38697577472085e-08    4.84496310889952e-08    5.29651551916706e-08
129                      28                       4                5.656854   -1.07272233165131e-08    1.46414781564348e-08    4.46947205454249e-09
130                      28                       4                2.828427   -1.29605069665464e-08    1.78961670371446e-08     1.0537856286437e-08
131                      28                       4                       0    -1.3928369229384e-10    1.92929322438781e-10    1.75498716985977e-10
132                      30                       6                5.656854   -9.57534912755959e-08    8.80572239292252e-08    3.28459958560155e-08
133                      30                       6                2.828427   -3.57356259254561e-09    3.24605788594374e-09    2.34438939316746e-09
134                      30                       6                       0   -1.00822645651246e-09    9.47165740744443e-10    1.05091617304464e-09
135                       0                       8                5.656854   -3.30476624496624e-10    1.24239403364202e-08    5.93413800987561e-09
136                       0                       8                2.828427   -5.02547417410257e-10    1.39806884644005e-08    1.30840788530659e-08
137                       0                       8                       0   -5.60316910258668e-12    1.41321204368437e-10    2.10724632189822e-10
138                       2                      10                5.656854     3.0488360930566e-06    1.55275299000881e-06    1.05985221305881e-06
139                       2                      10                2.828427    8.63736930708818e-08    4.44665354681142e-08    5.76480599326784e-08
140                       2                      10                       0    3.50658984928628e-08    1.80996854134356e-08    3.42670345309701e-08
141                       4                       8                5.656854    9.68532159986408e-07    8.57414264441049e-07    4.22409402300896e-07
142                       4                       8                2.828427    8.10653223754376e-07    7.13681831647071e-07    6.72551554035524e-07
143                       4                       8                       0    9.53855250069754e-09    8.34364450824747e-09    1.15439146376813e-08
144                       6                      10                5.656854    0.000264433147933893     0.00022482576492751    0.000162785022963722
145                       6                      10                2.828427    3.81307505549498e-06    3.20855388058503e-06    4.36254936150073e-06
146                       6                      10                       0    8.51241855728023e-07    7.08640460565478e-07    1.38400670603899e-06
147                       8                       8                5.656854    2.27855222483763e-05    3.75759252238197e-05    1.94280136752689e-05
148                       8                       8                2.828427    1.19737996064797e-05    1.90792542569004e-05    1.87815427704369e-05
149                       8                       8                       0    9.13392901159072e-08    1.41199760458774e-07     2.0209511398657e-07
150                      10                      10                5.656854     0.00289340076502686     0.00561586666158702     0.00446352581127905
151                      10                      10                2.828427    2.45498764777579e-05    4.55996390613857e-05     6.7056282831069e-05
152                      10                      10                       0    3.54123716789624e-06    6.24071400284923e-06    1.29749197061432e-05
153                      12                       8                5.656854    6.38237124221931e-05    0.000289768993882007    0.000162618332028869
154                      12                       8                2.828427    2.42415734652375e-05    0.000104541449508592    0.000109848758390799
155                      12                       8                       0    1.45807857136012e-07    5.90847771716107e-07    8.89157159226413e-07
156                      14                      10                5.656854     0.00101322617425845      0.0151292390410919      0.0132682280510319
157                      14                      10                2.828427    9.76462929366163e-06    0.000111356761290215      0.0001782405035716
158                      14                      10                       0    1.57687417808694e-06    1.33366883192592e-05    2.94532898335449e-05
159                      16                       8                5.656854   -6.32623003099291e-07    0.000428021423454126    0.000245936988496271
160                      16                       8                2.828427   -1.44962925519086e-07    0.000149517312112617    0.000160664686351827
161                      16                       8                       0   -3.45194621088477e-10    8.24192120755308e-07    1.26389548329627e-06
162                      18                      10                5.656854    -0.00109152613566268      0.0151108034061425       0.013206451735839
163                      18                      10                2.828427   -1.03015357042075e-05    0.000111618201718209    0.000177743332053164
164                      18                      10                       0   -1.59126972707908e-06    1.34266332430647e-05    2.94916734505351e-05
165                      20                       8                5.656854   -6.33072939753195e-05    0.000285391894197007    0.000160159485996009
166                      20                       8                2.828427   -2.41229049328635e-05    0.000103447399831931    0.000108466258798656
167                      20                       8                       0   -1.45639402975753e-07     5.8907536952828e-07    8.83118002443399e-07
168                      22                      10                5.656854    -0.00282352946401719     0.00559020143212903     0.00441552825196041
169                      22                      10                2.828427   -2.41459966048821e-05    4.57055926321849e-05    6.67349296381768e-05
170                      22                      10                       0    -3.5219042697532e-06    6.29495674215534e-06    1.29906514420085e-05
171                      24                       8                5.656854   -2.25394450394727e-05    3.77223867591046e-05     1.9413647435889e-05
172                      24                       8                2.828427   -1.18742899571427e-05    1.91816846430162e-05    1.88040280132135e-05
173                      24                       8                       0   -9.08873411117811e-08    1.42176280815375e-07    2.02634082022521e-07
174                      26                      10                5.656854   -0.000269847332378916    0.000231729657807262    0.000167210688021223
175                      26                      10                2.828427   -3.87440550378835e-06    3.29089121985607e-06    4.46068347820353e-06
176                      26                      10                       0   -8.62412787179289e-07    7.24134840596217e-07    1.40954519446839e-06
177                      28                       8                5.656854   -9.89101591968673e-07    8.82112832652309e-07    4.33216551779839e-07
178                      28                       8                2.828427    -8.2573802866081e-07     7.3218652576009e-07     6.8836567163868e-07
179                      28                       8                       0   -9.68988035946068e-09    8.53748999380243e-09     1.1781307907071e-08
180                      30                      10                5.656854   -3.14871360579709e-06    1.60322579509769e-06    1.09511032329622e-06
181                      30                      10                2.828427   -8.89222251716867e-08    4.57951850336146e-08    5.94390210610035e-08
182                      30                      10                       0   -3.59837877877303e-08    1.86102240003389e-08    3.52437075387186e-08
183                       0                      12                5.656854    -3.0826532361528e-09    5.99495685975767e-08    6.32042056278089e-08
184                       0                      12                2.828427   -3.33148882621975e-09    6.69631356072421e-08    1.33417588914881e-07
185                       0                      12                       0   -2.15458383607795e-10    9.23557502098213e-10    2.69708128440743e-09
186                       2                      14                5.656854    1.81258166901512e-05    2.66856343715574e-06    6.30835622792161e-06
187                       2                      14                2.828427    4.37952422406297e-07    6.82080912675444e-08    2.93627987956477e-07
188                       2                      14                       0    1.52648329305196e-07    2.48063482218208e-08    1.49107941899561e-07
189                       4                      12                5.656854    2.21256263122795e-05    8.48884164197912e-06    9.90458892760024e-06
190                       4                      12                2.828427    1.22729175696764e-05    4.88163471745961e-06    1.04308143017529e-05
191                       4                      12                       0    9.82287911483972e-08    4.02307942938961e-08    1.21146497388344e-07
192                       6                      14                5.656854     0.00300269920508647    0.000637002775662871     0.00189388169205609
193                       6                      14                2.828427    2.81731863990652e-05    6.70552271394363e-06    3.31894519264477e-05
194                       6                      14                       0    4.35355890569064e-06    1.11311508011134e-06    7.28561089378835e-06
195                       8                      12                5.656854     0.00126806516391092    0.000986708362708959     0.00128450681823452
196                       8                      12                2.828427    0.000278129415728574    0.000212998785812187    0.000495914918134754
197                       8                      12                       0    1.11279200421629e-06    8.38273840600919e-07    2.69239486077372e-06
198                      10                      14                5.656854     -0.0163060284148761    -0.00705028740659269      -0.114602176744656
199                      10                      14                2.828427    0.000181676949583976     0.00010699689747428    0.000620625398277703
200                      10                      14                       0    1.71024113178175e-05    9.86108020115118e-06    7.20853169926066e-05
201                      12                      12                5.656854     0.00173716061221463     0.00534739016399462      0.0075600781138058