ITEM: TIMESTEP
0
ITEM: NUMBER OF ATOMS
422
ITEM: BOX BOUNDS ff ff ff
0.0000000000000000e+00 2.3200000000000000e+02
0.0000000000000000e+00 2.3200000000000000e+02
0.0000000000000000e+00 2.3200000000000000e+02
ITEM: ATOMS id xu yu zu fx fy fz
1        113.145932193839        115.983520815677              109.756854     0.00288446971397627    -0.00127385082714331     -0.0137738679312439
2        118.827484840071        115.989226241634              109.756854      -0.005512908005704    -0.00124263782650348     -0.0134137596833087
3        117.402344993917        115.987795112765              109.756854     0.00327126326631141     0.00274558278099724     -0.0137950322381883
4        114.571072038949        115.984951942936              109.756854     0.00234542186459946     0.00278965074448312     -0.0134368518413286
5        116.701075167769        114.749724850164              109.756854      0.0037145597302353     0.00420832418800071     -0.0132429107263229
6        115.274826990867        114.748292608712              109.756854     0.00365568504594986     0.00422838970669526     -0.0129845677981548
7        115.272341865028        117.223022205388              109.756854      0.0036150120814833     0.00317425123796056     -0.0134044985303839
8        116.698590041422        117.224454446583              109.756854     0.00365346153874074     0.00313371504629087     -0.0136613091329736
9        114.517756920757        113.548446241175              109.756854     -0.0028199250556848    -0.00710322747902166     -0.0102669558460192
10        117.460553482731        113.551401403886              109.756854     -0.0147076274022825    -0.00713645573894298      -0.009139970251466
11        114.512863550773        118.421345651893              109.756854     -0.0027557528573284     -0.0106570422486223    -0.00817707450002846
12        117.455660110655        118.424300814179              109.756854     -0.0142920292095753     -0.0103415546902568    -0.00713280165465463
13        113.127311260236        113.562444587898              109.756854      0.0128707626441203     -0.0082683637636671      -0.012058268230718
14        113.122448808114        118.404554762274              109.756854      0.0127681663967823     -0.0067384438410384     -0.0103319460249441
15        118.850968226168        113.568192293572              109.756854     -0.0280117926639275    -0.00836261769380851    -0.00995375060271985
16        118.846105771496         118.41030247058              109.756854     -0.0275063018258443    -0.00622810786875991    -0.00827296984963767
17        112.426795838139         117.19431994364              109.756854     0.00404325005862748      0.0082249675097788     -0.0129853628841478
18         112.42922905874        114.771279815063              109.756854     0.00399287468845261    0.000834055772326731     -0.0124984512877939
19        119.546621196692        114.778427112272              109.756854     0.00542455830532111     0.00076722814243016     -0.0140547549845915
20        119.544187975028         117.20146724296              109.756854     0.00523638533837907     0.00792087428783486     -0.0145254119535352
21        120.955135022624        114.824435085822              109.756854       0.120603116814891       0.133497331019718      -0.030134052820257
22        120.952791362251        117.158288229576              109.756854       0.118370527515528      -0.037481706629082      -0.035035341959525
23        111.020625673161        114.814458829493              109.756854     -0.0092792302925403       0.134617951586935    -0.00418367771571491
24        111.018282013145        117.148311972274              109.756854    -0.00806887965446274      -0.032926042627158    -0.00928937604237756
25        121.586726460739        115.991997078118              109.756854     -0.0425503616760933     -0.0253927212380188     0.00196633330851473
26        110.386690574472        115.980749978664              109.756854     -0.0190353208260994     -0.0270835352658351     -0.0144286175059602
27        121.609196045824        118.185922140926              109.756854      -0.134090098936764     -0.0591531449641055      0.0395590825138373
28          121.6136022867        113.798121569695              109.756854      -0.140153566899809     -0.0578169679207972      0.0278523966333074
29        110.359814750727        118.174625487296              109.756854     -0.0025046138099655       -0.06776831820633     0.00318237534429682
30         110.36422099026         113.78682491673              109.756854    0.000455180617203899     -0.0574068062501924    -0.00963376076530545
31        112.599866822243        112.615454800093              109.756854     -0.0267821796696076      0.0153459155139182     0.00253343465812634
32        112.593103500599        119.350483321209              109.756854     -0.0262715030532647      0.0249434072529349    -0.00390959304187371
33        119.380313532952        112.622263734631              109.756854      0.0672409219890918      0.0159898119884559    -0.00396632208100848
34        119.373550207142        119.357292260389              109.756854       0.065143933068741      0.0229953378532437     -0.0101429691465892
35        114.962286572867         112.56896056388              109.756854      0.0115061507163204     0.00899542477844734    -0.00254398026332712
36        114.955425108682        119.401722146141              109.756854      0.0112599809794918      0.0174150107625259    -0.00684077936837428
37        117.017991924022        112.571024909739              109.756854      0.0139741010084311     0.00910558885715429    -0.00369533886745219
38        117.011130457531        119.403786490585              109.756854      0.0132056220867887      0.0170085694933544    -0.00788968544421695
39                     100                     100              105.656854       0.212157506682515       0.213923674880306      -0.975612897376233
40                     100                     100              102.828427       0.432020064688571       0.430516422817049   -0.000399012137555027
41                     100                     100                     100       0.212149494546148       0.213353711438608       0.976303676017736
42                     102                     102              105.656854      -0.344469521468624      -0.347444193834839       -0.27809648526716
43                     102                     102              102.828427     -0.0509056676750648     -0.0485020363221341    0.000700776646533515
44                     102                     102                     100      -0.344508137618043      -0.346316306239444       0.276905198665522
45                     104                     100              105.656854      0.0957931610826047       0.960017461879806      -0.808890403039802
46                     104                     100              102.828427     -0.0638057281983573       0.726786059243098   -0.000274062788973041
47                     104                     100                     100      0.0962151192462599       0.959370157577306       0.809341541198918
48                     106                     102              105.656854      -0.149172942077425       -0.51476124273278      -0.381516026141042
49                     106                     102              102.828427       0.142352390307702       0.066358693449274    0.000336322815270662
50                     106                     102                     100      -0.150280863259841      -0.513640505926787        0.38097632456467
51                     108                     100              105.656854       0.109625394282484        1.06006952854044      -0.801957807624475
52                     108                     100              102.828427      -0.111683044812388       0.639882653900818    0.000294187728137014
53                     108                     100                     100       0.110743452809355         1.0600432683395       0.801412199551923
54                     110                     102              105.656854      -0.143396475968263      -0.581929631214308      -0.373655799165228
55                     110                     102              102.828427       0.148273422609814       0.134909119366216    -0.00102500090220936
56                     110                     102                     100      -0.145819052718808      -0.582718297892805       0.375468547821861
57                     112                     100              105.656854       0.131792325317324        1.10857600611702      -0.810889064084029
58                     112                     100              102.828427      -0.135635084584858       0.589232094358172     0.00122925974671095
59                     112                     100                     100       0.132991561162439        1.11005005697088       0.808729845891422
60                     114                     102              105.656854      -0.163999989512481      -0.619346331287164      -0.360919018599937
61                     114                     102              102.828427       0.168975444133248       0.175444288556532    -0.00265551342108381
62                     114                     102                     100      -0.165450567599374      -0.623129927481065       0.365556623998691
63                     116                     100              105.656854       0.166588789109694        1.14419152246313      -0.821529698911365
64                     116                     100              102.828427      -0.170771923285512         0.5519019200273     0.00173349941365487
65                     116                     100                     100       0.166587454170193         1.1465765446527       0.818503810106008
66                     118                     102              105.656854      -0.209298500838147      -0.651545233988452      -0.347487028378164
67                     118                     102              102.828427       0.214114192718587       0.208690114952856    -0.00265313197826824
68                     118                     102                     100      -0.207843367657738      -0.655322251764495        0.35212040727651
69                     120                     100              105.656854       0.223087099758231        1.18265932859504       -0.83545666838265
70                     120                     100              102.828427      -0.228453341712073       0.512724784145556     0.00122829745351019
71                     120                     100                     100       0.221888870123504        1.18413025417981       0.833299120770232
72                     122                     102              105.656854      -0.288457121618205      -0.688100303394565      -0.330127024639011
73                     122                     102              102.828427       0.293161641649127       0.244473599916247    -0.00102392518931979
74                     122                     102                     100      -0.286041831955323      -0.688885057193987       0.331937887077091
75                     124                     100              105.656854       0.326252241914187        1.23671221944387      -0.852156149953577
76                     124                     100              102.828427      -0.322831530741507       0.459498435421099    0.000295413840411798
77                     124                     100                     100       0.325138024342059        1.23668726105001       0.851608471875045
78                     126                     102              105.656854      -0.461587828043808      -0.727559344890536      -0.332083776525507
79                     126                     102              102.828427       0.397061424465191        0.28153522982137    0.000331855561381704
80                     126                     102                     100      -0.460485219948865      -0.726446031607148       0.331551739119563
81                     128                     100              105.656854       0.708237015983761        1.34066361585645      -0.754691075205848
82                     128                     100              102.828427       -0.28086475188303       0.396167168282684   -0.000270738185228804
83                     128                     100                     100       0.707816434414883        1.34002104836871       0.755136550986173
84                     130                     102              105.656854        -1.3406160722656      -0.708616897872745      -0.755536430078012
85                     130                     102              102.828427      -0.395856120588188       0.280841403688064    0.000694886281760139
86                     130                     102                     100       -1.34057656992354      -0.707497099636509       0.754355166979691
87                     100                     104              105.656854       0.959004009889211      0.0998635933671602      -0.808237287264007
88                     100                     104              102.828427       0.727771486258552     -0.0669921489519767    -0.00108041440158285
89                     100                     104                     100         0.9584817508555      0.0985207223160718       0.810091157548579
90                     102                     106              105.656854      -0.513515019661209      -0.156611422714561      -0.383151633218048
91                     102                     106              102.828427      0.0649858266467458       0.147644506117703     0.00211718999528767
92                     102                     106                     100      -0.512371037615356      -0.153738637951221       0.379529102909118
93                     104                     104              105.656854       0.247126719848226       0.252522818143995      -0.388289211096377
94                     104                     104              102.828427      -0.179969395865946      -0.183986035833504    -0.00127221529432491
95                     104                     104                     100       0.247398737456334       0.250161287700888       0.390447978668105
96                     106                     106              105.656854        -0.2330131466742      -0.243755954280189      -0.505008422230971
97                     106                     106              102.828427       0.225394371918784       0.232368817457618     0.00229527238309873
98                     106                     106                     100      -0.234388676533415      -0.238606471837003       0.500869547320113
99                     108                     104              105.656854       0.173346475750802       0.338215254366107      -0.375221514409391
100                     108                     104              102.828427      -0.177554039594969      -0.268404419879428   -0.000136641963613468
101                     108                     104                     100       0.176443108548131       0.336547824546364       0.375451185219023
102                     110                     106              105.656854      -0.182938161906773      -0.292504576864296      -0.489742472354561
103                     110                     106              102.828427       0.193323987839596       0.285299329813734    -0.00134753838862562
104                     110                     106                     100      -0.191673318263155      -0.291758623199779       0.491992479645537
105                     112                     104              105.656854       0.167440439682221        0.37992113706503      -0.391434445612223
106                     112                     104              102.828427      -0.174747549913139      -0.315041861051157     0.00305558857507718
107                     112                     104                     100       0.172179595813511       0.383803080535017       0.386016746060074
108                     114                     106              105.656854      -0.189201154707227      -0.310827197730535      -0.465946922173641
109                     114                     106              102.828427       0.198432073803741       0.313820607431091    -0.00778014374868325
110                     114                     106                     100      -0.195635254557557      -0.323298460959386       0.480763272863524
111                     116                     104              105.656854       0.198199212521279        0.40666111591432      -0.407245494538291
112                     116                     104              102.828427      -0.203402691588995      -0.345455134078531      0.0050987171148064
113                     116                     104                     100       0.198189097787722       0.414687226663149       0.398155451381973
114                     118                     106              105.656854      -0.240036369636277      -0.333065632070769      -0.450061627823901
115                     118                     106              102.828427       0.242397361647948       0.336729268139607     -0.0077643272695531
116                     118                     106                     100      -0.233569489883177      -0.345493275040858       0.464844389972716
117                     120                     104              105.656854       0.259974135943215       0.436595033482554      -0.422152467302179
118                     120                     104              102.828427      -0.264246809531515      -0.373550107301126     0.00304781794671011
119                     120                     104                     100       0.255239946739795       0.440455956928977       0.416749135616243
120                     122                     106              105.656854      -0.317292000529821      -0.362497137623252      -0.437973413480247
121                     122                     106              102.828427       0.318618131718766       0.357559466547822    -0.00133866532045355
122                     122                     106                     100      -0.308602415263396      -0.361729765270423        0.44020836366457
123                     124                     104              105.656854       0.367886976605833       0.463516372287058      -0.438546803683626
124                     124                     104              102.828427      -0.362113512430572      -0.397613428962857   -0.000133298588888745
125                     124                     104                     100       0.364807906326541       0.461855638117367       0.438769893277573
126                     126                     106              105.656854      -0.466216916353528      -0.368045095496887      -0.441912474875324
127                     126                     106              102.828427       0.400943084125333       0.360606233036958     0.00227881634745792
128                     126                     106                     100      -0.464855169085563      -0.362929696205678        0.43780683919696
129                     128                     104              105.656854       0.728043039599166       0.462014361626195      -0.330438980433357
130                     128                     104              102.828427       -0.28262732341062      -0.396670824996645    -0.00126187798551856
131                     128                     104                     100       0.727772053943882       0.459669700094224       0.332579774104784
132                     130                     106              105.656854       -1.23687786870735       -0.32786637795854       -0.85398167615466
133                     130                     106              102.828427      -0.458532366803534       0.323382724915594      0.0021009756252514
134                     130                     106                     100       -1.23801215514816      -0.325015219419408       0.850387365331104
135                     100                     108              105.656854        1.06257873935557       0.116273539107472      -0.799524552132257
136                     100                     108              102.828427       0.638653084102888      -0.116480883037719    -0.00246881404546218
137                     100                     108                     100        1.06037675314261       0.113909079963726       0.803755158578999
138                     102                     110              105.656854      -0.588496076148277      -0.154628242777543      -0.379880599745182
139                     102                     110              102.828427       0.137617682965409       0.155417020524705     0.00496735156334378
140                     102                     110                     100      -0.583327697600245      -0.149984469753946       0.371143687278947
141                     104                     108              105.656854       0.337218429250505        0.18796219119433      -0.370463378403133
142                     104                     108              102.828427      -0.266458759197355      -0.186449846070552    -0.00433187034018078
143                     104                     108                     100       0.334657713190314       0.181485405725781       0.378261363296307
144                     106                     110              105.656854      -0.293653392831404      -0.212742591210702      -0.505995046080182
145                     106                     110              102.828427       0.282133176174037       0.207454127509523     0.00867304725953236
146                     106                     110                     100      -0.288757050451051      -0.198367431385631       0.486819698252912
147                     108                     108              105.656854       0.222300681448337       0.246001344796889      -0.359059457372724
148                     108                     108              102.828427      -0.229971165524634      -0.242122271686287    -0.00352503065460938
149                     108                     108                     100       0.228945110064119       0.235117511390365       0.367357899870806
150                     110                     110              105.656854      -0.193601537616693      -0.245472253574599      -0.485989049801498
151                     110                     110              102.828427       0.221434148310815       0.240467579175759     0.00170769708359572
152                     110                     110                     100      -0.224188917299063      -0.232174717731615        0.47586874205709
153                     112                     108              105.656854       0.182404010715704        0.25987429871589      -0.393312907171713
154                     112                     108              102.828427      -0.201992871145929      -0.270839877029694     0.00715894164014354
155                     112                     108                     100       0.202991427180417       0.267979393359609       0.378746844636301
156                     114                     110              105.656854      -0.189411604778387      -0.216674028167768      -0.406245131922358
157                     114                     110              102.828427       0.213914346853857       0.251524774344147     -0.0202228939233079
158                     114                     110                     100      -0.215204993334603      -0.250964274195759       0.467024259179789
159                     116                     108              105.656854        0.22024791022094       0.262118635118091      -0.424495422388776
160                     116                     108              102.828427      -0.226104589944028       -0.28694966738068      0.0154407174077399
161                     116                     108                     100       0.220184071627648        0.28787443415736       0.390961310818091
162                     118                     110              105.656854       -0.27349063938928      -0.227817762715286      -0.389127848827641
163                     118                     110              102.828427       0.261484329067744       0.262856564906977     -0.0201495153189959
164                     118                     110                     100      -0.247482389133386      -0.261928790298424       0.449654531726803
165                     120                     108              105.656854       0.292616528533507       0.293587374204411      -0.428019944464996
166                     120                     108              102.828427      -0.286209750095866      -0.305513454407839      0.0071123963582969
167                     120                     108                     100       0.272064296472936       0.301566898825033       0.413566532673335
168                     122                     110              105.656854      -0.342855123264465      -0.279095751803198      -0.429650416321537
169                     122                     110              102.828427       0.328187136905551       0.275042238254798     0.00175654762973575
170                     122                     110                     100      -0.312575639859413      -0.265662643283323       0.419434701989135
171                     124                     108              105.656854       0.374545144364116       0.315583245312455      -0.431446597077324
172                     124                     108              102.828427      -0.366984321688659      -0.314019435187846    -0.00351190974206273
173                     124                     108                     100       0.367980237646269       0.304747622182266       0.439689208352917
174                     126                     110              105.656854      -0.441784389290238       -0.26855868808451      -0.434520250708292
175                     126                     110              102.828427       0.381500375693632       0.265173921581581     0.00862086717428999
176                     126                     110                     100      -0.446677656836142      -0.254278799301667       0.415513297108043
177                     128                     108              105.656854       0.689304099817983       0.292048649358389      -0.325774203067964
178                     128                     108              102.828427      -0.247312248355668      -0.293966227630709     -0.0042999105345209
179                     128                     108                     100       0.691847234676975       0.285621430001046       0.333508070443077
180                     130                     110              105.656854       -1.18098953717797      -0.226971393501771      -0.839843246437358
181                     130                     110              102.828427      -0.511729385210661       0.230166142713916      0.0049305947917368
182                     130                     110                     100       -1.18611628002938      -0.222361046263709       0.831175651747081
183                     100                     112              105.656854        1.11729986894985        0.13770752630485      -0.805702592850245
184                     100                     112              102.828427       0.584396733402792      -0.139671659488874    -0.00429088178378239
185                     100                     112                     100        1.11221040551015       0.135493841276327       0.813102437680591
186                     102                     114              105.656854      -0.636013942376684      -0.169866616690424      -0.372549457134821
187                     102                     114              102.828427       0.183017279843907       0.172543443572559     0.00782092016698291
188                     102                     114                     100       -0.62580869039624      -0.167425716606212       0.358462139635959
189                     104                     112              105.656854        0.39615192140581       0.184837676513986      -0.374083457172266
190                     104                     112              102.828427      -0.319861116384672       -0.18402279852448     -0.0098349601543738
191                     104                     112                     100       0.384396756289992       0.176852001944533        0.39356702109961
192                     106                     114              105.656854      -0.340298477829054      -0.206135726021306      -0.511843819026424
193                     106                     114              102.828427       0.318723936964233       0.206395509332946      0.0166540486231032
194                     106                     114                     100      -0.322681778739773      -0.199169778789815       0.469377900598115
195                     108                     112              105.656854       0.262911078539364       0.233426298581434      -0.334369342432412
196                     108                     112              102.828427      -0.263554408560587      -0.219631285711492     -0.0133720409469231
197                     108                     112                     100       0.263032954509415       0.210140605473262       0.386829994624339
198                     110                     114              105.656854      -0.171110112409104      -0.208268553537031      -0.490990218220073
199                     110                     114              102.828427       0.235285240607297       0.226212426648458     0.00673115244194404
200                     110                     114                     100      -0.243681647937738      -0.220033614476977       0.457841124942341
201                     112                     112              105.656854        0.15276812101681        0.22548090355678      -0.420002955157109