ITEM: TIMESTEP
0
ITEM: NUMBER OF ATOMS
422
ITEM: BOX BOUNDS ff ff ff
0.0000000000000000e+00 2.3200000000000000e+02
0.0000000000000000e+00 2.3200000000000000e+02
0.0000000000000000e+00 2.3200000000000000e+02
ITEM: ATOMS id xu yu zu fx fy fz
1        113.121222160261          115.9588107821        108.632143966423      -0.003025295112805     0.00140829123822899       0.578976837803988
2        118.809110676039        115.970852077603        108.638479835968    -0.00915851127659396      0.0122393444563776       0.379942954451645
3          117.3714664874        115.956916606248        108.625975493483      0.0161363723202015      -0.014671768193554       0.381756350951529
4        114.590806829432        116.004686733419        108.676588790483     0.00519965241826523   -0.000808553477846701     -0.0530642318082378
5        116.688545503576        114.737195185971        108.644324335807    5.29695686239805e-05     0.00940735404698624       0.214210947761395
6        115.291575886513        114.765041504357        108.673602895645    -0.00193632321072297     -0.0038591020891287     -0.0976987624974225
7        115.314878413081        117.265558753441        108.699390548054     0.00300474496058817     0.00382628918656854     -0.0683892075721397
8        116.730805494445        117.256669899606        108.689069453023     -0.0245310661278078     0.00195848082109298      -0.574740033264679
9        114.532911693946        113.563601014363        108.672008773188    -0.00503253897119625     0.00902685594072502       -0.18505957280655
10         117.48205374686        113.572901668015        108.678354264129    -0.00360773387407108    -0.00582222909229262      -0.331199259899869
11        114.543916420688        118.452398521808        108.687906869915    -0.00498494929025479      -0.009250048554948     -0.0906780904189837
12        117.430870563024        118.399511266548        108.632064452369      0.0089262971375918     0.00530664399493946       0.115272432680035
13        113.140838163607        113.575971491269        108.670380903372    3.92900735685002e-05   -0.000310867140003241       0.086753997776409
14         113.15841475371         118.44052070787        108.692819945596     0.00264264705047949     0.00450104833633527      -0.187985844168124
15        118.847221534042        113.564445601446        108.653107307874    -0.00232144548436518     -0.0024726607136339       0.455933474325763
16        118.798269780578        118.362466479663        108.609018009082    -0.00829572982275718     0.00296885975382332       0.584976792544732
17        112.432203980899          117.1997280864         108.66226214276    0.000238636320013739    -0.00406460347812482      -0.225527487397627
18        112.433304434647        114.775355190971        108.660929375907     0.00320950008312662   -0.000784200493600122      -0.421635320876205
19        119.581464839526        114.813270755106        108.691697642834     0.00463983706798995    -0.00573668259561499      -0.636476448679032
20        119.557480643715        117.214759911646        108.670146668687    -0.00536832969412872     -0.0210061413887673      -0.752605597091389
21        120.966094159537        114.835394222735        108.667813136913   -0.000346735540866247     0.00344593582852273      0.0783643427907882
22        120.924992845002        117.130489712327        108.629055482751      0.0093387587052212     0.00412179323529053       0.543129898736283
23        110.997512301428        114.791345457759        108.633740628267      0.0117791622007385    -0.00917435132690615       0.563184590641041
24        111.001506244081        117.131536203209        108.640078230935      0.0128903792918865     0.00969478409321026       0.438641175627582
25        121.575748448503        115.981019065882        108.645875987764    0.000581848346364179    -0.00187379475893757     -0.0952620373996351
26         110.41352357821        116.007582982402        108.683687003738     -0.0346950454621883    0.000990948697755359      -0.719269372584341
27        121.623138062116        118.199864157218        108.670796016292    0.000470169004863169     0.00488451050202275       -0.13300301835416
28        121.596766866002        113.781286148996        108.640018579301       0.002277094645207   -0.000512947654277892       0.071121970501768
29        110.342171477523        118.156982214092        108.639210726796     0.00164229536762284     0.00111942451149185      0.0750278459703847
30        110.368970270065        113.791574196534        108.661603279804     0.00189982319782388     -0.0013299813212731    -0.00486523584457755
31        112.625598533659         112.64118651151        108.682585711417    9.07320964848202e-06   -0.000836682433230096      -0.063699755979576
32         112.60876953718         119.36614935779        108.672520036581     -0.0018418602221418   -0.000306508116733817      0.0358945927191891
33        119.421088789528        112.663038991207        108.697629256576     0.00313551386667751    -0.00346281782554907      -0.110524713286302
34        119.396307880007        119.380049933254        108.679611672865     0.00891777453215053      0.0105318704863946      -0.227360717869398
35         114.91752446247        112.524198453483        108.612091889604     0.00384918246351749    -0.00708858435564727       0.147676863794376
36        114.937073897832        119.383370935291         108.63850278915     0.00342950065029128     0.00631088030179142       0.146214425558024
37        117.052700972502         112.60573395822        108.691563048481   -0.000314809994361886    0.000620202496173331      0.0351792618432818
38        116.976591871119        119.369247904172        108.622315413588     0.00114985160179951      0.0010090070823391      0.0467859513200344
39                     100                     100              105.656854                       0                       0                       0
40                     100                     100              102.828427                       0                       0                       0
41                     100                     100                     100                       0                       0                       0
42                     102                     102              105.656854                       0                       0                       0
43                     102                     102              102.828427                       0                       0                       0
44                     102                     102                     100                       0                       0                       0
45                     104                     100              105.656854                       0                       0                       0
46                     104                     100              102.828427                       0                       0                       0
47                     104                     100                     100                       0                       0                       0
48                     106                     102              105.656854                       0                       0                       0
49                     106                     102              102.828427                       0                       0                       0
50                     106                     102                     100                       0                       0                       0
51                     108                     100              105.656854                       0                       0                       0
52                     108                     100              102.828427                       0                       0                       0
53                     108                     100                     100                       0                       0                       0
54                     110                     102              105.656854                       0                       0                       0
55                     110                     102              102.828427                       0                       0                       0
56                     110                     102                     100                       0                       0                       0
57                     112                     100              105.656854                       0                       0                       0
58                     112                     100              102.828427                       0                       0                       0
59                     112                     100                     100                       0                       0                       0
60                     114                     102              105.656854                       0                       0                       0
61                     114                     102              102.828427                       0                       0                       0
62                     114                     102                     100                       0                       0                       0
63                     116                     100              105.656854                       0                       0                       0
64                     116                     100              102.828427                       0                       0                       0
65                     116                     100                     100                       0                       0                       0
66                     118                     102              105.656854                       0                       0                       0
67                     118                     102              102.828427                       0                       0                       0
68                     118                     102                     100                       0                       0                       0
69                     120                     100              105.656854                       0                       0                       0
70                     120                     100              102.828427                       0                       0                       0
71                     120                     100                     100                       0                       0                       0
72                     122                     102              105.656854                       0                       0                       0
73                     122                     102              102.828427                       0                       0                       0
74                     122                     102                     100                       0                       0                       0
75                     124                     100              105.656854                       0                       0                       0
76                     124                     100              102.828427                       0                       0                       0
77                     124                     100                     100                       0                       0                       0
78                     126                     102              105.656854                       0                       0                       0
79                     126                     102              102.828427                       0                       0                       0
80                     126                     102                     100                       0                       0                       0
81                     128                     100              105.656854                       0                       0                       0
82                     128                     100              102.828427                       0                       0                       0
83                     128                     100                     100                       0                       0                       0
84                     130                     102              105.656854                       0                       0                       0
85                     130                     102              102.828427                       0                       0                       0
86                     130                     102                     100                       0                       0                       0
87                     100                     104              105.656854                       0                       0                       0
88                     100                     104              102.828427                       0                       0                       0
89                     100                     104                     100                       0                       0                       0
90                     102                     106              105.656854                       0                       0                       0
91                     102                     106              102.828427                       0                       0                       0
92                     102                     106                     100                       0                       0                       0
93                     104                     104              105.656854                       0                       0                       0
94                     104                     104              102.828427                       0                       0                       0
95                     104                     104                     100                       0                       0                       0
96                     106                     106              105.656854                       0                       0                       0
97                     106                     106              102.828427                       0                       0                       0
98                     106                     106                     100                       0                       0                       0
99                     108                     104              105.656854                       0                       0                       0
100                     108                     104              102.828427                       0                       0                       0
101                     108                     104                     100                       0                       0                       0
102                     110                     106              105.656854                       0                       0                       0
103                     110                     106              102.828427                       0                       0                       0
104                     110                     106                     100                       0                       0                       0
105                     112                     104              105.656854                       0                       0                       0
106                     112                     104              102.828427                       0                       0                       0
107                     112                     104                     100                       0                       0                       0
108                     114                     106              105.656854                       0                       0                       0
109                     114                     106              102.828427                       0                       0                       0
110                     114                     106                     100                       0                       0                       0
111                     116                     104              105.656854                       0                       0                       0
112                     116                     104              102.828427                       0                       0                       0
113                     116                     104                     100                       0                       0                       0
114                     118                     106              105.656854                       0                       0                       0
115                     118                     106              102.828427                       0                       0                       0
116                     118                     106                     100                       0                       0                       0
117                     120                     104              105.656854                       0                       0                       0
118                     120                     104              102.828427                       0                       0                       0
119                     120                     104                     100                       0                       0                       0
120                     122                     106              105.656854                       0                       0                       0
121                     122                     106              102.828427                       0                       0                       0
122                     122                     106                     100                       0                       0                       0
123                     124                     104              105.656854                       0                       0                       0
124                     124                     104              102.828427                       0                       0                       0
125                     124                     104                     100                       0                       0                       0
126                     126                     106              105.656854                       0                       0                       0
127                     126                     106              102.828427                       0                       0                       0
128                     126                     106                     100                       0                       0                       0
129                     128                     104              105.656854                       0                       0                       0
130                     128                     104              102.828427                       0                       0                       0
131                     128                     104                     100                       0                       0                       0
132                     130                     106              105.656854                       0                       0                       0
133                     130                     106              102.828427                       0                       0                       0
134                     130                     106                     100                       0                       0                       0
135                     100                     108              105.656854                       0                       0                       0
136                     100                     108              102.828427                       0                       0                       0
137                     100                     108                     100                       0                       0                       0
138                     102                     110              105.656854                       0                       0                       0
139                     102                     110              102.828427                       0                       0                       0
140                     102                     110                     100                       0                       0                       0
141                     104                     108              105.656854                       0                       0                       0
142                     104                     108              102.828427                       0                       0                       0
143                     104                     108                     100                       0                       0                       0
144                     106                     110              105.656854                       0                       0                       0
145                     106                     110              102.828427                       0                       0                       0
146                     106                     110                     100                       0                       0                       0
147                     108                     108              105.656854                       0                       0                       0
148                     108                     108              102.828427                       0                       0                       0
149                     108                     108                     100                       0                       0                       0
150                     110                     110              105.656854                       0                       0                       0
151                     110                     110              102.828427                       0                       0                       0
152                     110                     110                     100                       0                       0                       0
153                     112                     108              105.656854                       0                       0                       0
154                     112                     108              102.828427                       0                       0                       0
155                     112                     108                     100                       0                       0                       0
156                     114                     110              105.656854                       0                       0                       0
157                     114                     110              102.828427                       0                       0                       0
158                     114                     110                     100                       0                       0                       0
159                     116                     108              105.656854                       0                       0                       0
160                     116                     108              102.828427                       0                       0                       0
161                     116                     108                     100                       0                       0                       0
162                     118                     110              105.656854                       0                       0                       0
163                     118                     110              102.828427                       0                       0                       0
164                     118                     110                     100                       0                       0                       0
165                     120                     108              105.656854                       0                       0                       0
166                     120                     108              102.828427                       0                       0                       0
167                     120                     108                     100                       0                       0                       0
168                     122                     110              105.656854                       0                       0                       0
169                     122                     110              102.828427                       0                       0                       0
170                     122                     110                     100                       0                       0                       0
171                     124                     108              105.656854                       0                       0                       0
172                     124                     108              102.828427                       0                       0                       0
173                     124                     108                     100                       0                       0                       0
174                     126                     110              105.656854                       0                       0                       0
175                     126                     110              102.828427                       0                       0                       0
176                     126                     110                     100                       0                       0                       0
177                     128                     108              105.656854                       0                       0                       0
178                     128                     108              102.828427                       0                       0                       0
179                     128                     108                     100                       0                       0                       0
180                     130                     110              105.656854                       0                       0                       0
181                     130                     110              102.828427                       0                       0                       0
182                     130                     110                     100                       0                       0                       0
183                     100                     112              105.656854                       0                       0                       0
184                     100                     112              102.828427                       0                       0                       0
185                     100                     112                     100                       0                       0                       0
186                     102                     114              105.656854                       0                       0                       0
187                     102                     114              102.828427                       0                       0                       0
188                     102                     114                     100                       0                       0                       0
189                     104                     112              105.656854                       0                       0                       0
190                     104                     112              102.828427                       0                       0                       0
191                     104                     112                     100                       0                       0                       0
192                     106                     114              105.656854                       0                       0                       0
193                     106                     114              102.828427                       0                       0                       0
194                     106                     114                     100                       0                       0                       0
195                     108                     112              105.656854                       0                       0                       0
196                     108                     112              102.828427                       0                       0                       0
197                     108                     112                     100                       0                       0                       0
198                     110                     114              105.656854                       0                       0                       0
199                     110                     114              102.828427                       0                       0                       0
200                     110                     114                     100                       0                       0                       0
201                     112                     112              105.656854                       0                       0                       0