ITEM: TIMESTEP
0
ITEM: NUMBER OF ATOMS
422
ITEM: BOX BOUNDS ff ff ff
0.0000000000000000e+00 2.3200000000000000e+02
0.0000000000000000e+00 2.3200000000000000e+02
0.0000000000000000e+00 2.3200000000000000e+02
ITEM: ATOMS id xu yu zu fx fy fz
1        113.135692575426        115.973281197265        108.646614381588        4.86557443121461      -0.126970434825514      -0.238298868777734
2        118.797773249221        115.959514650784         108.62714240915        -1.4354548681877        3.93499240096663      -0.261457354055829
3        117.398523472914        115.983973591762        108.653032478997       -2.44750608932254        -3.1870196476958       0.129163952516168
4          114.5736327824        115.987512686387        108.659414743451       -1.92532244071923       -2.40445324631984      0.0773829108182762
5        116.684199625405          114.7328493078        108.639978457636       -1.96515076271991       -2.62174182991319     -0.0577035975957595
6        115.247757907305        114.721223525149        108.629784916437        2.45779044706126       -1.47024661470669      -0.112983474333993
7        115.249454620019        117.200134960379        108.633966754991        2.81127577881423        3.87748649608524      0.0969824686009011
8        116.695467771443        117.221332176604        108.653731730021       -2.60704550098559        1.08370716173475     -0.0744465556750237
9         114.47524559007        113.505934910488        108.614342669313        8.52263808422764       -3.78770602766195       -0.32426576750696
10          117.4372698259        113.528117747055        108.633570343169      -0.980810375165589        -6.1247020477438      -0.133097105802549
11        114.542527211412        118.451009312532        108.686517660639        1.03054600462031        2.67530594504491       0.160836962141855
12        117.410031563362        118.378672266886        108.611225452707        1.11281293580942         12.830751894538     -0.0391730472596036
13        113.108508171907        113.543641499568        108.638050911671        -4.3633884648463       -7.41405272972336      -0.212942333365162
14        113.112226338051        118.394332292211        108.646631529937       -2.16764455610918        9.24967758137997       0.021229626918837
15        118.869749443017        113.586973510421        108.675635216849       0.183890732620167       -9.65052905061959       0.360508598041839
16        118.873673675261        118.437870374345        108.684421903764       0.304092004191295         5.0199816503839      0.0567580309814854
17        112.408784255257        117.176308360758        108.638842417118        2.83477627700505        4.60528707468299      -0.256183204635633
18        112.407095168344        114.749145924668        108.634720109605       0.713980033272377      0.0221426261116386       -0.13911709850977
19        119.590591621019        114.822397536599        108.700824424327       -5.71263980879254       -8.19813415550156       0.741743954614193
20        119.521252608104        117.178531876035        108.633918633075        2.03094057610068        6.03769843197276        -0.2747805956993
21        120.936136904184        114.805436967383         108.63785588156        11.9780613096859       -10.1339103434054     -0.0329230567828065
22        120.909307829021        117.114804696346         108.61337046677        13.4805347721176        16.0273756945435      -0.108726960459745
23        111.062640197397        114.856473353728        108.698868524236       -17.5217567688227       -16.8388305564025     0.00110018875752532
24        111.060908242156        117.190938201284         108.69948022901       -13.9441584418599        5.68901748222535       0.347103011435588
25         121.55742825038        115.962698867759        108.627555789641        7.18575592771488        3.17590178528281      -0.312197225422596
26        110.399136683566        115.993196087758        108.669300109094       -4.62146133785091       0.429108614553201       0.327821474908946
27        121.620811846926        118.197537942029        108.668469801102       0.882570071824927      -0.210349267957358       -0.13168652779895
28         121.61805514517        113.802574428164        108.661306858469          5.727210588403       -7.15852887023143     -0.0254018194856508
29        110.329123752992         118.14393448956        108.626163002264       -5.41697554142346        7.49908625625495      -0.180220220528294
30        110.335459958464        113.758063884933        108.628092968203      -0.793890129243269        1.11717333306282       0.318354664124155
31        112.607873211766        112.623461189617        108.664860389523       -5.25083102272406       -7.17465832973983       0.217042633060621
32        112.642168546982        119.399548367592        108.705919046383       -2.95697241882677        3.02335588543745       0.051256250652258
33        119.417243667964        112.659193869643        108.693784135012        2.46719304827476        -4.5443321965008      0.0865197112351884
34        119.392261374839        119.376003428085        108.675565167696        1.87720704186507         3.8282238222063       0.109710597301445
35        114.969347174124        112.576021165137        108.663914601257        3.24606916202432       -6.08950563529643       0.162892227954817
36        114.927352719204        119.373649756663        108.628781610522        5.29035691598667        7.64934813527829      -0.215327517531237
37        116.986574919889        112.539607905607        108.625436995868       -1.58309865868904       -3.80044222043109      -0.104494510879811
38        117.046216274385        119.438872307439        108.691939816854        -3.3091689565455        3.16049093293073     -0.0309804219576905
39                     100                     100              105.656854                       0                       0                       0
40                     100                     100              102.828427                       0                       0                       0
41                     100                     100                     100                       0                       0                       0
42                     102                     102              105.656854                       0                       0                       0
43                     102                     102              102.828427                       0                       0                       0
44                     102                     102                     100                       0                       0                       0
45                     104                     100              105.656854                       0                       0                       0
46                     104                     100              102.828427                       0                       0                       0
47                     104                     100                     100                       0                       0                       0
48                     106                     102              105.656854                       0                       0                       0
49                     106                     102              102.828427                       0                       0                       0
50                     106                     102                     100                       0                       0                       0
51                     108                     100              105.656854                       0                       0                       0
52                     108                     100              102.828427                       0                       0                       0
53                     108                     100                     100                       0                       0                       0
54                     110                     102              105.656854                       0                       0                       0
55                     110                     102              102.828427                       0                       0                       0
56                     110                     102                     100                       0                       0                       0
57                     112                     100              105.656854                       0                       0                       0
58                     112                     100              102.828427                       0                       0                       0
59                     112                     100                     100                       0                       0                       0
60                     114                     102              105.656854                       0                       0                       0
61                     114                     102              102.828427                       0                       0                       0
62                     114                     102                     100                       0                       0                       0
63                     116                     100              105.656854                       0                       0                       0
64                     116                     100              102.828427                       0                       0                       0
65                     116                     100                     100                       0                       0                       0
66                     118                     102              105.656854                       0                       0                       0
67                     118                     102              102.828427                       0                       0                       0
68                     118                     102                     100                       0                       0                       0
69                     120                     100              105.656854                       0                       0                       0
70                     120                     100              102.828427                       0                       0                       0
71                     120                     100                     100                       0                       0                       0
72                     122                     102              105.656854                       0                       0                       0
73                     122                     102              102.828427                       0                       0                       0
74                     122                     102                     100                       0                       0                       0
75                     124                     100              105.656854                       0                       0                       0
76                     124                     100              102.828427                       0                       0                       0
77                     124                     100                     100                       0                       0                       0
78                     126                     102              105.656854                       0                       0                       0
79                     126                     102              102.828427                       0                       0                       0
80                     126                     102                     100                       0                       0                       0
81                     128                     100              105.656854                       0                       0                       0
82                     128                     100              102.828427                       0                       0                       0
83                     128                     100                     100                       0                       0                       0
84                     130                     102              105.656854                       0                       0                       0
85                     130                     102              102.828427                       0                       0                       0
86                     130                     102                     100                       0                       0                       0
87                     100                     104              105.656854                       0                       0                       0
88                     100                     104              102.828427                       0                       0                       0
89                     100                     104                     100                       0                       0                       0
90                     102                     106              105.656854                       0                       0                       0
91                     102                     106              102.828427                       0                       0                       0
92                     102                     106                     100                       0                       0                       0
93                     104                     104              105.656854                       0                       0                       0
94                     104                     104              102.828427                       0                       0                       0
95                     104                     104                     100                       0                       0                       0
96                     106                     106              105.656854                       0                       0                       0
97                     106                     106              102.828427                       0                       0                       0
98                     106                     106                     100                       0                       0                       0
99                     108                     104              105.656854                       0                       0                       0
100                     108                     104              102.828427                       0                       0                       0
101                     108                     104                     100                       0                       0                       0
102                     110                     106              105.656854                       0                       0                       0
103                     110                     106              102.828427                       0                       0                       0
104                     110                     106                     100                       0                       0                       0
105                     112                     104              105.656854                       0                       0                       0
106                     112                     104              102.828427                       0                       0                       0
107                     112                     104                     100                       0                       0                       0
108                     114                     106              105.656854                       0                       0                       0
109                     114                     106              102.828427                       0                       0                       0
110                     114                     106                     100                       0                       0                       0
111                     116                     104              105.656854                       0                       0                       0
112                     116                     104              102.828427                       0                       0                       0
113                     116                     104                     100                       0                       0                       0
114                     118                     106              105.656854                       0                       0                       0
115                     118                     106              102.828427                       0                       0                       0
116                     118                     106                     100                       0                       0                       0
117                     120                     104              105.656854                       0                       0                       0
118                     120                     104              102.828427                       0                       0                       0
119                     120                     104                     100                       0                       0                       0
120                     122                     106              105.656854                       0                       0                       0
121                     122                     106              102.828427                       0                       0                       0
122                     122                     106                     100                       0                       0                       0
123                     124                     104              105.656854                       0                       0                       0
124                     124                     104              102.828427                       0                       0                       0
125                     124                     104                     100                       0                       0                       0
126                     126                     106              105.656854                       0                       0                       0
127                     126                     106              102.828427                       0                       0                       0
128                     126                     106                     100                       0                       0                       0
129                     128                     104              105.656854                       0                       0                       0
130                     128                     104              102.828427                       0                       0                       0
131                     128                     104                     100                       0                       0                       0
132                     130                     106              105.656854                       0                       0                       0
133                     130                     106              102.828427                       0                       0                       0
134                     130                     106                     100                       0                       0                       0
135                     100                     108              105.656854                       0                       0                       0
136                     100                     108              102.828427                       0                       0                       0
137                     100                     108                     100                       0                       0                       0
138                     102                     110              105.656854                       0                       0                       0
139                     102                     110              102.828427                       0                       0                       0
140                     102                     110                     100                       0                       0                       0
141                     104                     108              105.656854                       0                       0                       0
142                     104                     108              102.828427                       0                       0                       0
143                     104                     108                     100                       0                       0                       0
144                     106                     110              105.656854                       0                       0                       0
145                     106                     110              102.828427                       0                       0                       0
146                     106                     110                     100                       0                       0                       0
147                     108                     108              105.656854                       0                       0                       0
148                     108                     108              102.828427                       0                       0                       0
149                     108                     108                     100                       0                       0                       0
150                     110                     110              105.656854                       0                       0                       0
151                     110                     110              102.828427                       0                       0                       0
152                     110                     110                     100                       0                       0                       0
153                     112                     108              105.656854                       0                       0                       0
154                     112                     108              102.828427                       0                       0                       0
155                     112                     108                     100                       0                       0                       0
156                     114                     110              105.656854                       0                       0                       0
157                     114                     110              102.828427                       0                       0                       0
158                     114                     110                     100                       0                       0                       0
159                     116                     108              105.656854                       0                       0                       0
160                     116                     108              102.828427                       0                       0                       0
161                     116                     108                     100                       0                       0                       0
162                     118                     110              105.656854                       0                       0                       0
163                     118                     110              102.828427                       0                       0                       0
164                     118                     110                     100                       0                       0                       0
165                     120                     108              105.656854                       0                       0                       0
166                     120                     108              102.828427                       0                       0                       0
167                     120                     108                     100                       0                       0                       0
168                     122                     110              105.656854                       0                       0                       0
169                     122                     110              102.828427                       0                       0                       0
170                     122                     110                     100                       0                       0                       0
171                     124                     108              105.656854                       0                       0                       0
172                     124                     108              102.828427                       0                       0                       0
173                     124                     108                     100                       0                       0                       0
174                     126                     110              105.656854                       0                       0                       0
175                     126                     110              102.828427                       0                       0                       0
176                     126                     110                     100                       0                       0                       0
177                     128                     108              105.656854                       0                       0                       0
178                     128                     108              102.828427                       0                       0                       0
179                     128                     108                     100                       0                       0                       0
180                     130                     110              105.656854                       0                       0                       0
181                     130                     110              102.828427                       0                       0                       0
182                     130                     110                     100                       0                       0                       0
183                     100                     112              105.656854                       0                       0                       0
184                     100                     112              102.828427                       0                       0                       0
185                     100                     112                     100                       0                       0                       0
186                     102                     114              105.656854                       0                       0                       0
187                     102                     114              102.828427                       0                       0                       0
188                     102                     114                     100                       0                       0                       0
189                     104                     112              105.656854                       0                       0                       0
190                     104                     112              102.828427                       0                       0                       0
191                     104                     112                     100                       0                       0                       0
192                     106                     114              105.656854                       0                       0                       0
193                     106                     114              102.828427                       0                       0                       0
194                     106                     114                     100                       0                       0                       0
195                     108                     112              105.656854                       0                       0                       0
196                     108                     112              102.828427                       0                       0                       0
197                     108                     112                     100                       0                       0                       0
198                     110                     114              105.656854                       0                       0                       0
199                     110                     114              102.828427                       0                       0                       0
200                     110                     114                     100                       0                       0                       0
201                     112                     112              105.656854                       0                       0                       0