ITEM: TIMESTEP
0
ITEM: NUMBER OF ATOMS
422
ITEM: BOX BOUNDS pp pp pp
0.0000000000000000e+00 3.2000000000000000e+01
0.0000000000000000e+00 3.2000000000000000e+01
0.0000000000000000e+00 3.2000000000000000e+01
ITEM: ATOMS id xu yu zu fx fy fz
1        13.3459321938386        15.9835208156773                 8.65685    -0.00566332216848482    0.000664878120243392      0.0117088058828487
2        19.0274848400711        15.9892262416344                 8.65685     0.00560390328391838    0.000289836292774681     0.00457393202857108
3         17.602344993917         15.987795112765                 8.65685    -0.00417578420324177    0.000583461178408073      0.0159874738377847
4         14.771072038949        15.9849519429358                 8.65685     0.00591527840211514     0.00054602286818202     0.00946281463195916
5        16.9010751677692        14.7497248501637                 8.65685     -0.0276532464691691      0.0190674391858656      0.0573658536372703
6        15.4748269908674        14.7482926087119                 8.65685      0.0185517124467297      0.0106456853806146      0.0268504032579288
7        15.4723418650276        17.2230222053877                 8.65685      0.0181185891564099     -0.0107812049784883      0.0259630584499551
8        16.8985900414216        17.2244544465825                 8.65685     -0.0269373006135784     -0.0191692454720011        0.05541389209298
9        14.7177569207574        13.5484462411751                 8.65685      0.0353330088343708     -0.0222162126468038       0.124120311747446
10        17.6605534827313        13.5514014038861                 8.65685     -0.0215173952907731     -0.0284488551326079       0.164806463191204
11        14.7128635507729         18.421345651893                 8.65685       0.035837067748211      0.0211676120072379       0.127095582924529
12        17.6556601106552        18.4243008141789                 8.65685     -0.0220757962501971      0.0272107346930777        0.16687583858298
13        13.3273112602357        13.5624445878976                 8.65685     -0.0347200860206904     -0.0225688959425691       0.130910618829503
14        13.3224488081137        18.4045547622743                 8.65685     -0.0354412619308968      0.0211447361558262       0.132891381229461
15         19.050968226168        13.5681922935721                 8.65685      0.0358450138577282     -0.0148481926911975      0.0822123417073037
16        19.0461057714963        18.4103024705805                 8.65685       0.036328076740353      0.0143607291818119      0.0839390316597902
17         12.626795838139        17.1943199436399                 8.65685     -0.0203956456546226     -0.0127803778169774      0.0313492224245786
18        12.6292290587396        14.7712798150634                 8.65685     -0.0211777824724717      0.0127280788762857       0.033020444880818
19        19.7466211966922        14.7784271122721                 8.65685     0.00903712212284366     0.00706422417927202      0.0131864458666833
20        19.7441879750283        17.2014672429596                 8.65685     0.00893898298910889    -0.00710818527079743      0.0127874896195227
21        21.1551350226241        14.8244350858224                 8.65685      -0.027183801301286      0.0265320268607553      0.0761149407655221
22        21.1527913622507        17.1582882295758                 8.65685     -0.0267018686238869     -0.0265306342983253        0.07428406244251
23        11.2206256731611        14.8144588294926                 8.65685      0.0238175696874794      0.0162859727682402      0.0425395649948344
24        11.2182820131454        17.1483119722736                 8.65685       0.022944489913224     -0.0164184465331121      0.0406330042507548
25        21.7867264607395        15.9919970781177                 8.65685   -0.000870290556941873    0.000166322467005675    -0.00121087551588533
26        10.5866905744716        15.9807499786644                 8.65685     0.00190131363181298    0.000328617273160059    -0.00326174876197859
27         21.809196045824        18.1859221409264                 8.65685    -0.00586618111944075     0.00571618484864473      0.0744305417643831
28        21.8136022867001        13.7981215696947                 8.65685    -0.00571376708118984    -0.00618879105848284      0.0741677177842322
29        10.5598147507275        18.1746254872963                 8.65685      0.0144542831308954      0.0044913923070874      0.0599291028007087
30        10.5642209902605        13.7868249167297                 8.65685      0.0143811420119941    -0.00541329034553791      0.0589729494989574
31        12.7998668222426        12.6154548000933                 8.65685   -0.000767971093020044   -0.000970305008627415    -0.00849816982259267
32        12.7931035005993        19.3504833212092                 8.65685   -0.000840366173436913     0.00100607823606283    -0.00836599668543899
33        19.5803135329519        12.6222637346313                 8.65685    0.000395727531025124   -0.000274030564565841    -0.00966991543817591
34        19.5735502071424         19.357292260389                 8.65685    0.000431013620338774    0.000296074906082244    -0.00961284667148741
35        15.1622865728669        12.5689605638796                 8.65685    0.000696866967443342   -0.000979760441462278    -0.00856530376395571
36         15.155425108682        19.4017221461408                 8.65685    0.000768052216532589     0.00104461812647816    -0.00839958882854442
37        17.2179919240215        12.5710249097393                 8.65685   -0.000880357707687171    -0.00187533549017932    -0.00693616584777166
38         17.211130457531        19.4037864905846                 8.65685   -0.000940953122378185      0.0019342822627362     -0.0067624916010394
39                       0                       0                5.656854                       0                       0                       0
40                       0                       0                2.828427                       0                       0                       0
41                       0                       0                       0                       0                       0                       0
42                       2                       2                5.656854    4.75118496738744e-10    6.53899349646402e-10    1.66431201549236e-10
43                       2                       2                2.828427                       0                       0                       0
44                       2                       2                       0                       0                       0                       0
45                       4                       0                5.656854                       0                       0                       0
46                       4                       0                2.828427                       0                       0                       0
47                       4                       0                       0                       0                       0                       0
48                       6                       2                5.656854    1.57619120315999e-08    3.08268147490935e-08    7.97002332695432e-09
49                       6                       2                2.828427       4.92596648185e-10    9.75818464848875e-10    4.98801429709554e-10
50                       6                       2                       0                       0                       0                       0
51                       8                       0                5.656854     6.3230270306718e-10    4.26399876735586e-11    4.28135945666303e-10
52                       8                       0                2.828427     3.6930614017754e-10     1.9300396054902e-11    4.48753653933308e-10
53                       8                       0                       0                       0                       0                       0
54                      10                       2                5.656854    7.48190045030898e-08    2.77051474816249e-07    7.31706790764678e-08
55                      10                       2                2.828427    2.56501715236673e-09    9.82971275392188e-09     5.0482087059127e-09
56                      10                       2                       0     9.6895493540435e-10    3.93176220680171e-09    3.05072257572657e-09
57                      12                       0                5.656854    1.24943820076598e-09    3.87088189829839e-10    2.04463863932488e-09
58                      12                       0                2.828427    1.56260763350084e-09    1.25395007652646e-09     4.5283603680277e-09
59                      12                       0                       0                       0                       0                       0
60                      14                       2                5.656854    5.27358894189955e-08    7.24539603475823e-07    1.94354097962866e-07
61                      14                       2                2.828427    1.82637314177719e-09    2.51693340577231e-08    1.30848341358261e-08
62                      14                       2                       0    9.05747472713058e-10    1.07121828851031e-08    8.39276587692614e-09
63                      16                       0                5.656854    9.72238118201663e-11    2.82247580006058e-10    3.30038905995997e-09
64                      16                       0                2.828427    1.34666247163045e-10    2.93815080649047e-10    7.23307843204699e-09
65                      16                       0                       0                       0                       0                       0
66                      18                       2                5.656854    -4.4592096317587e-08    7.48140133980785e-07    2.00797384192714e-07
67                      18                       2                2.828427   -1.50371755399846e-09    2.59142208442021e-08    1.34818731826088e-08
68                      18                       2                       0     -7.075350739412e-10    1.10439395721271e-08    8.65478933021828e-09
69                      20                       0                5.656854   -1.32421903711451e-09    1.69448906550028e-10    2.28336060886839e-09
70                      20                       0                2.828427   -1.62988769224286e-09    1.92087494903215e-10     5.3686183891975e-09
71                      20                       0                       0                       0                       0                       0
72                      22                       2                5.656854   -7.92305701207072e-08      3.175274586468e-07    8.39524741213416e-08
73                      22                       2                2.828427   -2.84009555136096e-09    1.14628965199345e-08    5.88425509481468e-09
74                      22                       2                       0   -9.55178956042885e-10    4.33626608756276e-09    3.36866204157839e-09
75                      24                       0                5.656854   -7.03316186777546e-10    3.35106982852371e-11    5.10342855573253e-10
76                      24                       0                2.828427   -4.09372708880636e-10    1.71530069545137e-11    5.39450327449728e-10
77                      24                       0                       0                       0                       0                       0
78                      26                       2                5.656854   -1.93497243507674e-08    4.00466114636297e-08    1.03384575536255e-08
79                      26                       2                2.828427   -7.05252441794283e-10    1.48173180244742e-09    7.48291453901764e-10
80                      26                       2                       0                       0                       0                       0
81                      28                       0                5.656854                       0                       0                       0
82                      28                       0                2.828427                       0                       0                       0
83                      28                       0                       0                       0                       0                       0
84                      30                       2                5.656854   -6.26479052933429e-10    9.02872824681817e-10    2.29580179061016e-10
85                      30                       2                2.828427                       0                       0                       0
86                      30                       2                       0                       0                       0                       0
87                       0                       4                5.656854   -6.06546985266032e-11    3.11336401320416e-10    9.53690723533049e-11
88                       0                       4                2.828427                       0                       0                       0
89                       0                       4                       0                       0                       0                       0
90                       2                       6                5.656854    7.97111747452996e-08    7.25190661485597e-08    2.69434038937213e-08
91                       2                       6                2.828427     3.0841674838614e-09    2.73955430137087e-09     1.9797088954781e-09
92                       2                       6                       0     9.1973560404549e-10    8.36248869165046e-10    9.29683292028062e-10
93                       4                       4                5.656854    9.55674253909874e-09    1.27563956537158e-08     3.8827134005727e-09
94                       4                       4                2.828427    1.17234135166772e-08    1.58172200911477e-08    9.31199453503241e-09
95                       4                       4                       0    9.55255705015381e-11     1.4242238872768e-10    1.25978472727108e-10
96                       6                       6                5.656854    2.87070160667116e-06    4.13227075276209e-06    1.57304490010719e-06
97                       6                       6                2.828427    8.03721680900883e-08    1.14264658387896e-07    8.39299105407728e-08
98                       6                       6                       0    3.14234114634942e-08    4.38692588837616e-08    4.80085359779515e-08
99                       8                       4                5.656854    1.18378122403525e-07    2.69324059629764e-07    8.41640191276568e-08
100                       8                       4                2.828427    1.21545383286301e-07    2.74279804070804e-07    1.65668807076915e-07
101                       8                       4                       0    1.66130592735231e-09    3.72812770171323e-09    3.35610270794824e-09
102                      10                       6                5.656854    2.05923351509966e-05    5.87100228656105e-05    2.35321479193241e-05
103                      10                       6                2.828427    4.33551092368283e-07    1.21502689263956e-06    9.31614425476259e-07
104                      10                       6                       0    1.33034216034421e-07    3.64713085132758e-07    4.08767643655363e-07
105                      12                       4                5.656854    2.64940428704013e-07    1.48685985115592e-06    4.80358524835747e-07
106                      12                       4                2.828427     2.3858076145423e-07     1.3058112667268e-06    8.11770494715407e-07
107                      12                       4                       0    2.99186722925932e-09      1.592797826793e-08    1.46022617052042e-08
108                      14                       6                5.656854    1.35362960888644e-05    0.000179296372615267    7.44670554738786e-05
109                      14                       6                2.828427    2.75884664138005e-07    3.24915183961309e-06    2.57238784516208e-06
110                      14                       6                       0    8.24301409614739e-08    8.66322818257613e-07    9.97601569120874e-07
111                      16                       4                5.656854     1.1453835193995e-08    2.33962681460989e-06    7.64372923958899e-07
112                      16                       4                2.828427    1.12245317525306e-08    2.00390043567342e-06     1.2591692443327e-06
113                      16                       4                       0     1.5646005902609e-10    2.37775127060306e-08    2.20129030798579e-08
114                      18                       6                5.656854   -1.09688618499979e-05    0.000184603938330027    7.67529349086744e-05
115                      18                       6                2.828427   -2.27575979301127e-07    3.34473616387347e-06    2.65088747489772e-06
116                      18                       6                       0   -6.87543406055611e-08    8.90939975557409e-07    1.02708648375034e-06
117                      20                       4                5.656854   -2.53972278038643e-07    1.61621477927293e-06    5.22983792880278e-07
118                      20                       4                2.828427   -2.29195970866455e-07    1.41134281751071e-06    8.78630829074051e-07
119                      20                       4                       0   -2.87460307314468e-09    1.72254019543145e-08    1.57845058187225e-08
120                      22                       6                5.656854   -2.23005860402622e-05    6.91486894240805e-05    2.78445151235631e-05
121                      22                       6                2.828427   -4.60002190467249e-07     1.4014973890095e-06    1.07860600216161e-06
122                      22                       6                       0   -1.38369303593551e-07    4.12401949501614e-07    4.63667554187454e-07
123                      24                       4                5.656854   -1.37403637953091e-07    3.32046978669186e-07    1.04089972375033e-07
124                      24                       4                2.828427   -1.39139725058732e-07    3.33038908499061e-07     2.0163643533011e-07
125                      24                       4                       0    -1.8582493564441e-09    4.51840098989579e-09    4.05661602415839e-09
126                      26                       6                5.656854   -3.68310420971246e-06    5.59786539062312e-06    2.13690245342312e-06
127                      26                       6                2.828427    -1.0052219283815e-07    1.50456874203636e-07    1.10785370456482e-07
128                      26                       6                       0   -3.88714453761535e-08    5.75908878607355e-08    6.26435960339655e-08
129                      28                       4                5.656854   -1.26801869124335e-08    1.76829937154688e-08    5.38965238511923e-09
130                      28                       4                2.828427   -1.54116611801272e-08    2.15927982611002e-08    1.27462731401285e-08
131                      28                       4                       0   -1.62539595112847e-10    2.31020592546722e-10    2.09933791686375e-10
132                      30                       6                5.656854   -1.19389459749602e-07    1.10684741059211e-07    4.11230402360692e-08
133                      30                       6                2.828427   -4.35457617314422e-09    4.02389154081542e-09    2.90936299046113e-09
134                      30                       6                       0   -1.23096410508444e-09    1.17258018429568e-09    1.30170460638477e-09
135                       0                       8                5.656854   -4.99081568368203e-09    1.31722022972438e-08    6.27130685956104e-09
136                       0                       8                2.828427   -5.22067271921697e-09    1.48856003281946e-08    1.39450282395686e-08
137                       0                       8                       0   -5.01832137854711e-11    1.51889030403126e-10    2.26953263952054e-10
138                       2                      10                5.656854    2.52913311993815e-06    1.26529385343744e-06    8.60995518470823e-07
139                       2                      10                2.828427    7.34546387845069e-08    3.73435268742924e-08    4.84865289980548e-08
140                       2                      10                       0    3.07888512002947e-08    1.55700869633952e-08     2.9543590260035e-08
141                       4                       8                5.656854    8.43814084879627e-07    7.31444590505409e-07    3.58419593470777e-07
142                       4                       8                2.828427    7.20926427763706e-07    6.22771982287195e-07    5.86148316033207e-07
143                       4                       8                       0    8.51218855533625e-09    7.32051353191115e-09    1.01545915525114e-08
144                       6                      10                5.656854    0.000233881717269277    0.000193063381374717    0.000139261745758074
145                       6                      10                2.828427    3.45831554090252e-06     2.8393321061303e-06    3.86005713708448e-06
146                       6                      10                       0    7.85521136771369e-07    6.40490206140681e-07    1.25049412656652e-06
147                       8                       8                5.656854    2.09532425716214e-05    3.40155553876982e-05    1.74616239116956e-05
148                       8                       8                2.828427    1.11560078050576e-05      1.751200195917e-05    1.71724953916162e-05
149                       8                       8                       0    8.59926275689068e-08    1.30923991194424e-07    1.86841410528789e-07
150                      10                      10                5.656854     0.00270644817562497     0.00519021253815199     0.00408706015776759
151                      10                      10                2.828427    2.34165631574848e-05    4.27886467050236e-05    6.25026586326221e-05
152                      10                      10                       0    3.43739399300785e-06     5.9231133680441e-06    1.22409352111113e-05
153                      12                       8                5.656854    6.37572084826492e-05     0.00027281792243635    0.000152704856527224
154                      12                       8                2.828427    2.42990308163005e-05    9.95669337701048e-05    0.000104248640445783
155                      12                       8                       0    1.46858983645681e-07    5.68448448336979e-07    8.52012659985597e-07
156                      14                      10                5.656854      0.0012453102466024      0.0149303755881226      0.0130499710674189
157                      14                      10                2.828427    1.11248006431794e-05      0.0001096705550755    0.000174611594354374
158                      14                      10                       0    1.70988448024715e-06    1.31632127803842e-05    2.89218507698124e-05
159                      16                       8                5.656854    1.07397035555376e-06    0.000423214370065033    0.000243259111840776
160                      16                       8                2.828427    7.20103775393501e-07    0.000148014872550237    0.000158907730877496
161                      16                       8                       0    5.91508012361586e-09    8.17451408772642e-07    1.25221942995435e-06
162                      18                      10                5.656854   -0.000825774351602339      0.0151935617798546       0.013308489752824
163                      18                      10                2.828427   -8.36270936668598e-06    0.000111824480758583    0.000178483802848404
164                      18                      10                       0   -1.38111854040294e-06    1.34559337579275e-05    2.96322445188192e-05
165                      20                       8                5.656854   -6.02412104751403e-05    0.000300893965887692    0.000169152750141141
166                      20                       8                2.828427   -2.29380697799573e-05    0.000107970866889015    0.000113500758706083
167                      20                       8                       0   -1.38545922266034e-07    6.09187028562461e-07    9.16081490820419e-07
168                      22                      10                5.656854    -0.00296632523333812     0.00619453463057516     0.00494068314373809
169                      22                      10                2.828427   -2.48177432487842e-05    4.96998841896248e-05    7.32390804907785e-05
170                      22                      10                       0   -3.55724447970488e-06    6.71397037311073e-06     1.3955146247799e-05
171                      24                       8                5.656854   -2.53939241549772e-05    4.42104479249143e-05    2.28285630351542e-05
172                      24                       8                2.828427   -1.30385729245815e-05    2.19131828655672e-05    2.15870207136654e-05
173                      24                       8                       0   -9.77396083647531e-08    1.58763109445153e-07    2.27243390063782e-07
174                      26                      10                5.656854    -0.00032745983538614    0.000289290959920772    0.000209436812641908
175                      26                      10                2.828427   -4.52793242748316e-06    3.95720040399195e-06    5.39731983215173e-06
176                      26                      10                       0   -9.73379672508338e-07    8.40946921103388e-07    1.64649815788973e-06
177                      28                       8                5.656854   -1.21704950231851e-06    1.10812694967169e-06    5.44054596657663e-07
178                      28                       8                2.828427   -9.93959681975904e-07    9.00420920797644e-07    8.48750663212918e-07
179                      28                       8                       0   -1.13301745943786e-08    1.02013333466322e-08    1.41325214446266e-08
180                      30                      10                5.656854   -4.03655965594584e-06    2.08143139735296e-06    1.42185030715575e-06
181                      30                      10                2.828427    -1.1179108209222e-07    5.82607567388362e-08    7.57787618648273e-08
182                      30                      10                       0   -4.36503203268502e-08    2.29469251434059e-08    4.36381004885222e-08
183                       0                      12                5.656854   -6.01814598245051e-08    6.31851628306021e-08     6.6774025599359e-08
184                       0                      12                2.828427    -6.0293699512548e-08    7.02870068523766e-08    1.40900275202327e-07
185                       0                      12                       0   -8.65141675717205e-10    9.82385517602456e-10    2.87586151761694e-09
186                       2                      14                5.656854     1.4445492319882e-05    2.05070321831446e-06     4.9126662031649e-06
187                       2                      14                2.828427    3.61910263227332e-07    5.44559680514183e-08    2.38682281800864e-07
188                       2                      14                       0    1.30493163277256e-07    2.05116626512586e-08    1.25926421242644e-07
189                       4                      12                5.656854    1.83773289950372e-05    6.82506719202837e-06    7.97102558278452e-06
190                       4                      12                2.828427    1.06079296340457e-05    4.09412851133001e-06    8.79405573876364e-06
191                       4                      12                       0    8.75203430632857e-08    3.49120306012869e-08    1.05624393848785e-07
192                       6                      14                5.656854     0.00253692322549585    0.000509230847575165      0.0015365927762437
193                       6                      14                2.828427    2.49872141682315e-05     5.6817154581462e-06    2.84920439083385e-05
194                       6                      14                       0    3.98680702553051e-06     9.8269888914421e-07    6.49010095351995e-06
195                       8                      12                5.656854     0.00116747716272625    0.000868697408054815     0.00113247098205184
196                       8                      12                2.828427    0.000260717226167562     0.00019337284949711    0.000450309208467331
197                       8                      12                       0      1.057578073986e-06    7.76963026998572e-07    2.48897779657843e-06
198                      10                      14                5.656854     -0.0197055617994854     -0.0032882616315938      -0.108032519923829
199                      10                      14                2.828427    0.000179948630570199    0.000102346234481039    0.000585542322842799
200                      10                      14                       0    1.70269152343545e-05    9.51861462322329e-06    6.87410502041686e-05
201                      12                      12                5.656854     0.00204249766268036     0.00553903618292817     0.00789303286051293