ITEM: TIMESTEP
0
ITEM: NUMBER OF ATOMS
422
ITEM: BOX BOUNDS ff ff ff
0.0000000000000000e+00 2.3200000000000000e+02
0.0000000000000000e+00 2.3200000000000000e+02
0.0000000000000000e+00 2.3200000000000000e+02
ITEM: ATOMS id xu yu zu fx fy fz
1        114.445932193839        115.983520815677              108.656854      0.0080509458421053   -0.000548031350968362      0.0150760708766902
2        120.127484840071        115.989226241634              108.656854    -0.00663435272820312    -0.00119018735645731    -0.00596981408082739
3        118.702344993917        115.987795112765              108.656854     0.00683793484152068     0.00326703407545968      0.0114484526453971
4        115.871072038949        115.984951942936              108.656854     0.00325396307418034     0.00296068905190629   -1.96714338842102e-05
5        118.001075167769        114.749724850164              108.656854     0.00368197266430496      0.0428693219559188        0.13420627277022
6        116.574826990867        114.748292608712              108.656854      -0.013528821707551      0.0137601427444176      0.0306126256821861
7        116.572341865028        117.223022205388              108.656854     -0.0129821993494294    -0.00606862186406633      0.0290744563572892
8        117.998590041422        117.224454446583              108.656854     0.00345165060882932     -0.0355999574196352       0.130153335203925
9        115.817756920757        113.548446241175              108.656854     0.00597636635290142     -0.0161122594853187      0.0162039759082668
10        118.760553482731        113.551401403886              108.656854      0.0281459546513424     -0.0322832666932124       0.127597850650913
11        115.812863550773        118.421345651893              108.656854     0.00663114500275089    -0.00289723197000142      0.0188303113508776
12        118.755660110655        118.424300814179              108.656854      0.0291698879204888       0.013258068854004       0.131974185467661
13        114.427311260236        113.562444587898              108.656854      0.0436543299755927     -0.0384689409929937       0.166871653495822
14        114.422448808114        118.404554762274              108.656854       0.043892258748305      0.0209760370511286       0.172157848341599
15        120.150968226168        113.568192293572              108.656854     -0.0385678308076686     -0.0162871171668502      0.0174838966374161
16        120.146105771496         118.41030247058              108.656854     -0.0377014644477425    0.000964710944750723      0.0192152337057153
17        113.726795838139         117.19431994364              108.656854    -0.00809410242809514     -0.0283471282472438       0.119177305893458
18         113.72922905874        114.771279815063              108.656854    -0.00846215942329193      0.0375958777889818       0.124406595733599
19        120.846621196692        114.778427112272              108.656854     -0.0161660641868036      0.0160532085090269      0.0488821454406702
20        120.844187975028         117.20146724296              108.656854     -0.0158464339250227    -0.00716980792001445      0.0471284903479124
21        122.255135022624        114.824435085822              108.656854       0.118019749425069       0.141705551682336      0.0542875730681388
22        122.252791362251        117.158288229576              108.656854       0.114992652074875     -0.0440947549260225      0.0485879981881738
23        112.320625673161        114.814458829493              108.656854     0.00775519085963848       0.113163724196205      0.0445844958831903
24        112.318282013145        117.148311972274              108.656854     0.00893616817084621     -0.0050446962616909      0.0410316271726185
25        122.886726460739        115.991997078118              108.656854     -0.0212745662534392     -0.0253583782098756     -0.0108696162536971
26        111.686690574472        115.980749978664              108.656854     -0.0103820438454432     -0.0280945396456381      -0.054437802191047
27        122.909196045824        118.185922140926              108.656854     -0.0727393363356434     -0.0441543647824597       0.127542122017525
28          122.9136022867        113.798121569695              108.656854     -0.0803228273959337     -0.0756632424629607       0.116398217389251
29        111.659814750727        118.174625487296              108.656854      0.0246784888217272     -0.0593416031781416     0.00773916159694967
30         111.66422099026         113.78682491673              108.656854      0.0261918963170308     -0.0761473051308929    -0.00493492213742224
31        113.899866822243        112.615454800093              108.656854     -0.0261330313425441      0.0238530383040706    -0.00789917225824789
32        113.893103500599        119.350483321209              108.656854     -0.0259638243387066       0.018499297245132     -0.0137609779734473
33        120.680313532952        112.622263734631              108.656854      0.0852476758763079      0.0265972527446429     0.00396558593657375
34        120.673550207142        119.357292260389              108.656854      0.0823906023628639      0.0132945130617882    -0.00150417940481136
35        116.262286572867         112.56896056388              108.656854      0.0181577845140588      0.0161310846412193     0.00633249629697384
36        116.255425108682        119.401722146141              108.656854      0.0174299630296849      0.0113153371764648     0.00231447537386398
37        118.317991924022        112.571024909739              108.656854     0.00884987965565072      0.0133605686962955     -0.0082283561469304
38        118.311130457531        119.403786490585              108.656854     0.00780661563232658      0.0137060301977684     -0.0119145786252107
39                     100                     100              105.656854       0.212393031809385       0.213925124682895      -0.975694790627849
40                     100                     100              102.828427       0.431811565328665       0.430448634963011   -0.000364522786961154
41                     100                     100                     100       0.212310886088488       0.213450655723286       0.976319398553582
42                     102                     102              105.656854       -0.34492805217722      -0.347479667742122       -0.27794622411675
43                     102                     102              102.828427     -0.0505246359881499     -0.0483368166394703    0.000669072005387439
44                     102                     102                     100      -0.344772956716973      -0.346512615110793       0.276835778437343
45                     104                     100              105.656854      0.0961644833614178       0.960274555979972      -0.808901180302136
46                     104                     100              102.828427     -0.0640659679462616       0.726503162278482   -0.000347465808657287
47                     104                     100                     100      0.0963647255188901       0.959616270236399       0.809466590069067
48                     106                     102              105.656854      -0.149862761456671       -0.51540890261512      -0.381576316125891
49                     106                     102              102.828427       0.142752349148087       0.066973061151909    0.000577469354192003
50                     106                     102                     100      -0.150445832340665      -0.514095624242293        0.38067720275196
51                     108                     100              105.656854        0.10982254477257         1.0607792906242      -0.801754318114183
52                     108                     100              102.828427      -0.111710849902302       0.639332160528357     2.1018728199119e-05
53                     108                     100                     100       0.110669321890888        1.06041057015999       0.801671732011681
54                     110                     102              105.656854      -0.143353124629322      -0.583403874540292      -0.374244951882542
55                     110                     102              102.828427       0.147962170196037       0.135857774335502   -0.000411329185177378
56                     110                     102                     100      -0.145447088242845      -0.583236396248259       0.375002283097376
57                     112                     100              105.656854       0.131229635021831        1.10930801732614      -0.810467265216623
58                     112                     100              102.828427       -0.13507035715817        0.58882482835167    0.000873443441430965
59                     112                     100                     100       0.132520332801913        1.11024071340004       0.808964931575347
60                     114                     102              105.656854       -0.16233442177292      -0.619964390239005      -0.361707685601342
61                     114                     102              102.828427       0.167625148885462       0.175549931906455    -0.00221716446389203
62                     114                     102                     100      -0.164513865653691      -0.623062791003904       0.365391807854545
63                     116                     100              105.656854       0.165517669948519        1.14395540339466      -0.821202839616586
64                     116                     100              102.828427      -0.169935639591628       0.552260271247842     0.00162861763616865
65                     116                     100                     100       0.166000560433004        1.14626471033963       0.818466104471142
66                     118                     102              105.656854      -0.207770651629832      -0.649955998680942       -0.34769444557833
67                     118                     102              102.828427       0.213091918714873       0.207378715571482    -0.00293164698372024
68                     118                     102                     100      -0.207207222320278      -0.654483174538842       0.352526594673325
69                     120                     100              105.656854       0.222621161858036        1.18155042271469      -0.835445834662689
70                     120                     100              102.828427      -0.228157897581928       0.513635390810683     0.00143961231590703
71                     120                     100                     100       0.221701199959879        1.18350252915176       0.833016855420342
72                     122                     102              105.656854      -0.288764720668256      -0.686162333649115       -0.32981692448424
73                     122                     102              102.828427       0.293484281765359       0.243101281580847    -0.00158398171174507
74                     122                     102                     100      -0.286257856458803      -0.688038174015391       0.332479818250125
75                     124                     100              105.656854       0.326623990407699        1.23586679822428      -0.852300776120222
76                     124                     100              102.828427      -0.323172650740074       0.460143682541151    0.000537892767774304
77                     124                     100                     100       0.325390634754704        1.23623971340268       0.851352334124213
78                     126                     102              105.656854      -0.462599875446447      -0.727023808613175      -0.331825997749972
79                     126                     102              102.828427       0.397875255999414       0.281161988081049    6.74095741202219e-05
80                     126                     102                     100      -0.461052609143547       -0.72617259095815       0.331793856422813
81                     128                     100              105.656854       0.708741505884351         1.3404837282735      -0.754803425157546
82                     128                     100              102.828427      -0.281299481002639       0.396293376049384   -0.000162656650577469
83                     128                     100                     100       0.708153078211783        1.33991845853342       0.755036821051554
84                     130                     102              105.656854       -1.34117307432961      -0.708868970992233      -0.755429540547027
85                     130                     102              102.828427      -0.395380077435976       0.281052872800859     0.00066963314031019
86                     130                     102                     100       -1.34095789906361      -0.707615045102061        0.75435622668611
87                     100                     104              105.656854       0.959361360741478      0.0996621448156347      -0.808535462157288
88                     100                     104              102.828427       0.727393066683254       -0.06699826683021   -0.000913893782484034
89                     100                     104                     100       0.958794259912223      0.0986243793484466       0.810068390046687
90                     102                     106              105.656854      -0.514282677877672       -0.15623725012122      -0.382474160274978
91                     102                     106              102.828427      0.0657684772142623       0.147745832232572     0.00184847621731014
92                     102                     106                     100      -0.512937459172757      -0.153981296937094       0.379469948426361
93                     104                     104              105.656854       0.248115824617958       0.252702461771398      -0.388572474796624
94                     104                     104              102.828427       -0.18070306730458      -0.184413300083688     -0.0013124976276876
95                     104                     104                     100       0.247826086982623       0.250566093053978       0.390679404358305
96                     106                     106              105.656854      -0.235445164166696      -0.244596627854996      -0.504535465571711
97                     106                     106              102.828427       0.226838730302355       0.233535068863009     0.00275066324759316
98                     106                     106                     100      -0.235003510938036      -0.239425047676158       0.500175412662636
99                     108                     104              105.656854       0.174587938076838       0.340013005230324      -0.374789173144138
100                     108                     104              102.828427      -0.178021454376081      -0.269764619289622   -0.000894825670424107
101                     108                     104                     100        0.17647063797061       0.337350343683316       0.376136694449296
102                     110                     106              105.656854      -0.184317083514592      -0.297755232039881      -0.491973752693674
103                     110                     106              102.828427       0.193059500995162       0.288084523273931    0.000847708735070971
104                     110                     106                     100      -0.191028423760296      -0.292958450302304       0.490616858016964
105                     112                     104              105.656854       0.165954170331641       0.382567622726822      -0.389840602547871
106                     112                     104              102.828427      -0.173265239852273       -0.31629239889516     0.00188678575741829
107                     112                     104                     100       0.171083275154295       0.384301434638145       0.386666474505674
108                     114                     106              105.656854      -0.182688779848672       -0.31261846159639      -0.469080062316609
109                     114                     106              102.828427       0.194174225766443        0.31402365340987      -0.006634326132323
110                     114                     106                     100      -0.193286869857442      -0.323175876452984        0.48048155117993
111                     116                     104              105.656854        0.19452393258381       0.405378782429607      -0.406284058150145
112                     116                     104              102.828427      -0.200951098110894      -0.344178632819737     0.00516742547759837
113                     116                     104                     100       0.196752032276346       0.413898717845362       0.397797807641688
114                     118                     106              105.656854      -0.235075899567052      -0.325296036964635      -0.449265125798466
115                     118                     106              102.828427       0.239805935647671       0.332476511917516     -0.0100796563187605
116                     118                     106                     100      -0.232246606570237       -0.34358999542345       0.466542010456043
117                     120                     104              105.656854       0.259223287262934       0.432354927341617      -0.422770296795957
118                     120                     104              102.828427      -0.263954508669328      -0.370848259488073     0.00430072829560578
119                     120                     104                     100       0.255072799290346       0.439023795391975       0.415684267418528
120                     122                     106              105.656854      -0.321052444165974      -0.356208634851697      -0.435438789609253
121                     122                     106              102.828427        0.32091025209038       0.354431528078355    -0.00371693345024422
122                     122                     106                     100      -0.309684329081038      -0.360229900402208       0.441807163123606
123                     124                     104              105.656854       0.369978875482069       0.461750690649298      -0.439269349101448
124                     124                     104              102.828427      -0.363614630956118      -0.396500755791406    0.000625824777329932
125                     124                     104                     100        0.36569979701979       0.461172888627861       0.438140755313443
126                     126                     106              105.656854      -0.469580456775138      -0.369143490837132      -0.441459311503778
127                     126                     106              102.828427       0.403260936216264       0.361063631386786      0.0021529082937211
128                     126                     106                     100       -0.46626188310531       -0.36293116731605       0.438010372379086
129                     128                     104              105.656854       0.729302013641032       0.462543088752655      -0.330641934084467
130                     128                     104              102.828427      -0.283631360176501      -0.397025343746492    -0.00122925051242688
131                     128                     104                     100       0.728499143888506       0.459798597230413        0.33255320507021
132                     130                     106              105.656854       -1.23739504149606      -0.329527866055747      -0.854032721803618
133                     130                     106              102.828427      -0.457971737265598       0.324469039674392     0.00249933028502302
134                     130                     106                     100       -1.23855925161481      -0.325546401182094        0.85005519747677
135                     100                     108              105.656854        1.06282385245507       0.115691558890512      -0.800393386828104
136                     100                     108              102.828427       0.638101421887621      -0.116355690121522    -0.00196461637800401
137                     100                     108                     100        1.06090143683673       0.113987564014551       0.803626035839562
138                     102                     110              105.656854      -0.589045479051585      -0.153591251882693      -0.377711869465683
139                     102                     110              102.828427       0.138902032784041       0.155363557350546     0.00407792312589705
140                     102                     110                     100      -0.584333273292464      -0.150203092608362       0.371156320260805
141                     104                     108              105.656854       0.339184415981416       0.187316338146846      -0.372189609719234
142                     104                     108              102.828427       -0.26822972739236      -0.186915627595207     -0.0040425717133194
143                     104                     108                     100       0.335674334696108       0.182027720826713       0.378657864655474
144                     106                     110              105.656854      -0.300314449145902      -0.212425050721895      -0.501401410325434
145                     106                     110              102.828427       0.286316636183376       0.209111961566903     0.00937726065212612
146                     106                     110                     100      -0.290364406267686      -0.199423773459585       0.485335629583815
147                     108                     108              105.656854       0.229126548671397       0.250339154812567      -0.358822081951138
148                     108                     108              102.828427      -0.232476787065637      -0.245279206294113    -0.00592410692920192
149                     108                     108                     100       0.229462712986026       0.236595064198083       0.369205551736567
150                     110                     110              105.656854      -0.208968263716759      -0.268269116833772      -0.500990814937733
151                     110                     110              102.828427        0.22267772583404       0.247160233737947      0.0108568573039887
152                     110                     110                     100      -0.223285415168075      -0.234097879911071       0.472083135888848
153                     112                     108              105.656854       0.176689922585702       0.271940085259789      -0.384603859056682
154                     112                     108              102.828427      -0.197639166819671      -0.274661154960411     0.00258428682296006
155                     112                     108                     100        0.20050277211366       0.269098730324323       0.380652464949887
156                     114                     110              105.656854      -0.152332297291631      -0.208006866392674      -0.406626777507611
157                     114                     110              102.828427       0.200846945074023       0.252005411998426     -0.0178393712792957
158                     114                     110                     100      -0.210017887536992      -0.250852464864689       0.466589284882052
159                     116                     108              105.656854       0.205558772422055       0.252800449942058      -0.424098719107727
160                     116                     108              102.828427      -0.218671668392122      -0.282799244642011      0.0180808256092831
161                     116                     108                     100       0.216819459141275       0.286328003425085       0.389324001282933
162                     118                     110              105.656854      -0.257769205575782       -0.18468604891646      -0.357494789017881
163                     118                     110              102.828427       0.255823944732314       0.254331757964213     -0.0322811863118348
164                     118                     110                     100      -0.245124386084665      -0.259202545425489       0.454744966147551
165                     120                     108              105.656854       0.293913636208353       0.274930107727684      -0.436882245196381
166                     120                     108              102.828427      -0.287370707523261      -0.298535327626001      0.0138726551193485
167                     120                     108                     100        0.27238377011403        0.29903602286183       0.410151478662822
168                     122                     110              105.656854      -0.379212826896837      -0.259484230616487      -0.405402044287667
169                     122                     110              102.828427       0.338201137550044       0.271169830534399    -0.00521592063844724
170                     122                     110                     100      -0.315819878453434      -0.263968191660279       0.422943237464123
171                     124                     108              105.656854       0.385445175718266       0.316879944190593      -0.433231425018779
172                     124                     108              102.828427      -0.372500087983462      -0.313737387046947    -0.00237872364402758
173                     124                     108                     100       0.370487639892451       0.304193678141642       0.438669239782886
174                     126                     110              105.656854      -0.445100117644116      -0.283093332074153      -0.441694896153961
175                     126                     110              102.828427       0.385748603331772       0.268820657710063      0.0124807778730424
176                     126                     110                     100      -0.449349129904439        -0.2549295251076       0.414669876194649
177                     128                     108              105.656854       0.690282708901869       0.296731514983967      -0.324866331720585
178                     128                     108              102.828427      -0.248685903808063      -0.296154835849939    -0.00562422697717824
179                     128                     108                     100       0.693047682643063       0.286365991660643       0.334171125690269
180                     130                     110              105.656854        -1.1784556413009      -0.231309673534222      -0.841413588333633
181                     130                     110              102.828427      -0.512247635710493       0.232454449442549     0.00708783528654945
182                     130                     110                     100       -1.18653199666779      -0.223301404896034       0.829860862011661
183                     100                     112              105.656854        1.11699260808125       0.137058838891086      -0.807482674126085
184                     100                     112              102.828427       0.583768661884423      -0.139505226192857    -0.00328093881908483
185                     100                     112                     100         1.1129409925005        0.13553032762287       0.812819941716944
186                     102                     114              105.656854      -0.635829234450374      -0.169270999373764      -0.368576733518404
187                     102                     114              102.828427       0.184668035289414       0.172489957800972     0.00624276139191185
188                     102                     114                     100       -0.62718081439714      -0.167517354023075       0.358559129632323
189                     104                     112              105.656854       0.398188185136879       0.183455814461027      -0.379867785232279
190                     104                     112              102.828427      -0.323104708309793       -0.18434127457025    -0.00873589835692714
191                     104                     112                     100       0.386220134277668       0.177293417216361       0.394158022624773
192                     106                     114              105.656854      -0.352203869607166      -0.206563754511251      -0.499702179248641
193                     106                     114              102.828427        0.32624400168023       0.207297450558093      0.0177019997749372
194                     106                     114                     100      -0.325319187220317      -0.199687638622233       0.467057130934749
195                     108                     112              105.656854       0.293077815648212       0.240273925374712      -0.339542666210342
196                     108                     112              102.828427      -0.271530086922971      -0.223567976816706      -0.020308669554342
197                     108                     112                     100       0.264551109387544       0.211592934872146       0.390787601598579
198                     110                     114              105.656854      -0.242307164133604      -0.212369595962441      -0.600308498853477
199                     110                     114              102.828427       0.238525339921626       0.229001425758976      0.0277288886868492
200                     110                     114                     100      -0.242542469712942      -0.220936974322739       0.451342435521013
201                     112                     112              105.656854       0.111697372885505       0.275502640122521      -0.329935846707246