ITEM: TIMESTEP
0
ITEM: NUMBER OF ATOMS
422
ITEM: BOX BOUNDS pp pp pp
0.0000000000000000e+00 3.2000000000000000e+01
0.0000000000000000e+00 3.2000000000000000e+01
0.0000000000000000e+00 3.2000000000000000e+01
ITEM: ATOMS id xu yu zu fx fy fz
1        13.1430413608739        15.9806299827126        8.65395916703531       -2.53338915046753        -3.1372353345457      -0.726197007920896
2        18.8491939281681        16.0109353297313        8.67855908809694        -3.5950047330488       -3.03524563509468      -0.720576992669263
3        17.3715390042369        15.9569891230849        8.62604401031996        4.69643070045499        4.35790392254816        1.05347130453582
4        14.5311790058859        15.9450589098727        8.61695696693689        2.36764651817361        2.03617875633484       0.396299178079626
5        16.7095440764744        14.7581937588689        8.66531890870519       -1.65102403816832        -1.8480035868385      -0.360454419914725
6        15.2765010224375        14.7499666402819        8.65852403157005       -1.69313706834345       -1.96914353837934      -0.335657657718262
7        15.2265247296429        17.1772050700031        8.61103286461539          2.236302078525        2.01296427341158       0.366231039312279
8        16.7058541575952        17.2317185627562        8.66411411617369       -2.95240390892426        -2.4637794196709      -0.812643379796829
9        14.4981061305952         13.528795451013        8.63719920983785      0.0497017635149808       0.296715341701983     -0.0315732634153129
10        17.4590871739755        13.5499350951302        8.65538369124418      -0.909384180513934       -0.15464133206462     -0.0544693240099983
11        14.4739290531891        18.3824111543093        8.61791550241623        1.92888354765476        1.41560302741244       0.192236523643438
12        17.4695085531979        18.4381492567215        8.67069844254265       0.824096476294681       0.477396774106868       0.252082299814476
13         13.081475109911        13.5166084375728        8.61101384967523         3.6796303308651        4.21012212724517       0.395853048554961
14        13.1149495752129        18.3970555293735        8.64935076709923       -2.06387159812226       -1.23156562468616      -0.265986268974464
15        18.8173545299217        13.5345785973257        8.62323630375362        3.53589665489439        4.23557256440082       0.796388735039682
16        18.8922437950954        18.4564404941796        8.70298802359915       -3.52539889157372       -3.88647050052921      -0.718029110146926
17        12.3881477302133        17.1556718357142        8.61820189207429        2.66617064457377        3.02522568340903       0.529827565824414
18        12.4170259429202        14.7590766992441        8.64464688418063       0.761051157917746       0.586184071557005       0.134036748378904
19        19.5689982823424        14.8008041979223         8.6792270856502       -4.02303894895666       -4.16071934021642      -0.815507202373586
20        19.5238837338309        17.1811630017622        8.63654575880265        4.41228745519277        5.29843584571064        1.05781555817642
21        20.9229598825991        14.7922599457974        8.62467485997503        4.34107446331918        4.83955170725382       0.910407097496196
22        20.9725458627282        17.1780427300533        8.67660450047748      -0.495701795298544      -0.151203285431657       -0.43325652664638
23        11.0379242527194        14.8317574090508        8.67414857955828       -1.40657369868693      -0.808503006862029      -0.499207586725708
24        10.9967280941809        17.1267580533092        8.63529608103554      -0.227988320645661        1.04167533971976     -0.0184220246913456
25        21.5828870137911        15.9881576311693        8.65301055305163      -0.599611923476007      -0.909448872099365       -0.15336216864643
26        10.3592378061786        15.9532972103714        8.62939723170698         1.0605994840707        2.16762386686949       0.491123361934228
27        21.6579594014856        18.2346854965879        8.70561335566158       -1.67069333481079       -2.30756840796019     -0.0462900678095746
28        21.6143696493558        13.7988889323504         8.6576173626557      -0.942733256967998       -1.38831598183789      -0.264565755362331
29        10.3840190224219        18.1988297589907        8.68105427169444      -0.514577647154644       -1.59227222784625      -0.206677684782991
30        10.4060231166692        13.8286270431384         8.6986521264087       -1.19409076906636        -2.1184310810651      0.0878501688121587
31        12.6370281474153        12.6526161252659        8.69401132517263       -1.95379346715689       -2.82624682279311     -0.0373640670287671
32        12.6170371664628        19.3744169870727        8.68078366586347     -0.0451924680271367      -0.490047468566677     -0.0447376342852948
33        19.4108026132834        12.6527528149628        8.68733908033149      -0.536449354215924       -1.09749025518325      -0.238201871356939
34        19.3921250122637        19.3758670655103        8.67542480512133       0.805539715980274       0.869839893313577      0.0917877552535064
35        14.9491365436968        12.5558105347095        8.64369997082989       0.144789091969594     -0.0808071222788703      0.0501105409145217
36        14.9484704187078        19.3947674561667        8.64989531002585      -0.531404018627709       -1.21123928081033     -0.0914991156798767
37        17.0230894538628        12.5761224395806        8.66194752984133      -0.338133396212227      -0.163994078815363       0.050896659944154
38        17.0114404775787        19.4040965106323        8.65716002004773      -0.106504114935797       0.161379008580414      0.0182615442411195
39                       0                       0                5.656854                       0                       0                       0
40                       0                       0                2.828427                       0                       0                       0
41                       0                       0                       0                       0                       0                       0
42                       2                       2                5.656854                       0                       0                       0
43                       2                       2                2.828427                       0                       0                       0
44                       2                       2                       0                       0                       0                       0
45                       4                       0                5.656854                       0                       0                       0
46                       4                       0                2.828427                       0                       0                       0
47                       4                       0                       0                       0                       0                       0
48                       6                       2                5.656854                       0                       0                       0
49                       6                       2                2.828427                       0                       0                       0
50                       6                       2                       0                       0                       0                       0
51                       8                       0                5.656854                       0                       0                       0
52                       8                       0                2.828427                       0                       0                       0
53                       8                       0                       0                       0                       0                       0
54                      10                       2                5.656854                       0                       0                       0
55                      10                       2                2.828427                       0                       0                       0
56                      10                       2                       0                       0                       0                       0
57                      12                       0                5.656854                       0                       0                       0
58                      12                       0                2.828427                       0                       0                       0
59                      12                       0                       0                       0                       0                       0
60                      14                       2                5.656854                       0                       0                       0
61                      14                       2                2.828427                       0                       0                       0
62                      14                       2                       0                       0                       0                       0
63                      16                       0                5.656854                       0                       0                       0
64                      16                       0                2.828427                       0                       0                       0
65                      16                       0                       0                       0                       0                       0
66                      18                       2                5.656854                       0                       0                       0
67                      18                       2                2.828427                       0                       0                       0
68                      18                       2                       0                       0                       0                       0
69                      20                       0                5.656854                       0                       0                       0
70                      20                       0                2.828427                       0                       0                       0
71                      20                       0                       0                       0                       0                       0
72                      22                       2                5.656854                       0                       0                       0
73                      22                       2                2.828427                       0                       0                       0
74                      22                       2                       0                       0                       0                       0
75                      24                       0                5.656854                       0                       0                       0
76                      24                       0                2.828427                       0                       0                       0
77                      24                       0                       0                       0                       0                       0
78                      26                       2                5.656854                       0                       0                       0
79                      26                       2                2.828427                       0                       0                       0
80                      26                       2                       0                       0                       0                       0
81                      28                       0                5.656854                       0                       0                       0
82                      28                       0                2.828427                       0                       0                       0
83                      28                       0                       0                       0                       0                       0
84                      30                       2                5.656854                       0                       0                       0
85                      30                       2                2.828427                       0                       0                       0
86                      30                       2                       0                       0                       0                       0
87                       0                       4                5.656854                       0                       0                       0
88                       0                       4                2.828427                       0                       0                       0
89                       0                       4                       0                       0                       0                       0
90                       2                       6                5.656854                       0                       0                       0
91                       2                       6                2.828427                       0                       0                       0
92                       2                       6                       0                       0                       0                       0
93                       4                       4                5.656854                       0                       0                       0
94                       4                       4                2.828427                       0                       0                       0
95                       4                       4                       0                       0                       0                       0
96                       6                       6                5.656854                       0                       0                       0
97                       6                       6                2.828427                       0                       0                       0
98                       6                       6                       0                       0                       0                       0
99                       8                       4                5.656854                       0                       0                       0
100                       8                       4                2.828427                       0                       0                       0
101                       8                       4                       0                       0                       0                       0
102                      10                       6                5.656854                       0                       0                       0
103                      10                       6                2.828427                       0                       0                       0
104                      10                       6                       0                       0                       0                       0
105                      12                       4                5.656854                       0                       0                       0
106                      12                       4                2.828427                       0                       0                       0
107                      12                       4                       0                       0                       0                       0
108                      14                       6                5.656854                       0                       0                       0
109                      14                       6                2.828427                       0                       0                       0
110                      14                       6                       0                       0                       0                       0
111                      16                       4                5.656854                       0                       0                       0
112                      16                       4                2.828427                       0                       0                       0
113                      16                       4                       0                       0                       0                       0
114                      18                       6                5.656854                       0                       0                       0
115                      18                       6                2.828427                       0                       0                       0
116                      18                       6                       0                       0                       0                       0
117                      20                       4                5.656854                       0                       0                       0
118                      20                       4                2.828427                       0                       0                       0
119                      20                       4                       0                       0                       0                       0
120                      22                       6                5.656854                       0                       0                       0
121                      22                       6                2.828427                       0                       0                       0
122                      22                       6                       0                       0                       0                       0
123                      24                       4                5.656854                       0                       0                       0
124                      24                       4                2.828427                       0                       0                       0
125                      24                       4                       0                       0                       0                       0
126                      26                       6                5.656854                       0                       0                       0
127                      26                       6                2.828427                       0                       0                       0
128                      26                       6                       0                       0                       0                       0
129                      28                       4                5.656854                       0                       0                       0
130                      28                       4                2.828427                       0                       0                       0
131                      28                       4                       0                       0                       0                       0
132                      30                       6                5.656854                       0                       0                       0
133                      30                       6                2.828427                       0                       0                       0
134                      30                       6                       0                       0                       0                       0
135                       0                       8                5.656854                       0                       0                       0
136                       0                       8                2.828427                       0                       0                       0
137                       0                       8                       0                       0                       0                       0
138                       2                      10                5.656854                       0                       0                       0
139                       2                      10                2.828427                       0                       0                       0
140                       2                      10                       0                       0                       0                       0
141                       4                       8                5.656854                       0                       0                       0
142                       4                       8                2.828427                       0                       0                       0
143                       4                       8                       0                       0                       0                       0
144                       6                      10                5.656854                       0                       0                       0
145                       6                      10                2.828427                       0                       0                       0
146                       6                      10                       0                       0                       0                       0
147                       8                       8                5.656854                       0                       0                       0
148                       8                       8                2.828427                       0                       0                       0
149                       8                       8                       0                       0                       0                       0
150                      10                      10                5.656854                       0                       0                       0
151                      10                      10                2.828427                       0                       0                       0
152                      10                      10                       0                       0                       0                       0
153                      12                       8                5.656854                       0                       0                       0
154                      12                       8                2.828427                       0                       0                       0
155                      12                       8                       0                       0                       0                       0
156                      14                      10                5.656854                       0                       0                       0
157                      14                      10                2.828427                       0                       0                       0
158                      14                      10                       0                       0                       0                       0
159                      16                       8                5.656854                       0                       0                       0
160                      16                       8                2.828427                       0                       0                       0
161                      16                       8                       0                       0                       0                       0
162                      18                      10                5.656854                       0                       0                       0
163                      18                      10                2.828427                       0                       0                       0
164                      18                      10                       0                       0                       0                       0
165                      20                       8                5.656854                       0                       0                       0
166                      20                       8                2.828427                       0                       0                       0
167                      20                       8                       0                       0                       0                       0
168                      22                      10                5.656854                       0                       0                       0
169                      22                      10                2.828427                       0                       0                       0
170                      22                      10                       0                       0                       0                       0
171                      24                       8                5.656854                       0                       0                       0
172                      24                       8                2.828427                       0                       0                       0
173                      24                       8                       0                       0                       0                       0
174                      26                      10                5.656854                       0                       0                       0
175                      26                      10                2.828427                       0                       0                       0
176                      26                      10                       0                       0                       0                       0
177                      28                       8                5.656854                       0                       0                       0
178                      28                       8                2.828427                       0                       0                       0
179                      28                       8                       0                       0                       0                       0
180                      30                      10                5.656854                       0                       0                       0
181                      30                      10                2.828427                       0                       0                       0
182                      30                      10                       0                       0                       0                       0
183                       0                      12                5.656854                       0                       0                       0
184                       0                      12                2.828427                       0                       0                       0
185                       0                      12                       0                       0                       0                       0
186                       2                      14                5.656854                       0                       0                       0
187                       2                      14                2.828427                       0                       0                       0
188                       2                      14                       0                       0                       0                       0
189                       4                      12                5.656854                       0                       0                       0
190                       4                      12                2.828427                       0                       0                       0
191                       4                      12                       0                       0                       0                       0
192                       6                      14                5.656854                       0                       0                       0
193                       6                      14                2.828427                       0                       0                       0
194                       6                      14                       0                       0                       0                       0
195                       8                      12                5.656854                       0                       0                       0
196                       8                      12                2.828427                       0                       0                       0
197                       8                      12                       0                       0                       0                       0
198                      10                      14                5.656854                       0                       0                       0
199                      10                      14                2.828427                       0                       0                       0
200                      10                      14                       0                       0                       0                       0
201                      12                      12                5.656854                       0                       0                       0