ITEM: TIMESTEP
0
ITEM: NUMBER OF ATOMS
422
ITEM: BOX BOUNDS ff ff ff
0.0000000000000000e+00 2.3200000000000000e+02
0.0000000000000000e+00 2.3200000000000000e+02
0.0000000000000000e+00 2.3200000000000000e+02
ITEM: ATOMS id xu yu zu fx fy fz
1         113.17943213516        116.017020756999        108.690353941322    0.000826482522833696     -0.0013355865725136     -0.0546705422649047
2        118.865056442329        116.026797843892        108.694425602258     0.00147138971749346   -0.000610580454482024     -0.0553001169532409
3        117.378602108039        115.964052226887        108.633111114122      8.180900749176e-05     0.00211572796608601      0.0786404248134412
4        114.591514300937        116.005394204923        108.677296261988   -2.89608519717919e-05     0.00028914183692435      0.0423868733665149
5        116.743102164699        114.791751847094         108.69888099693     -0.0040918552720164   -0.000636063820011183     -0.0984836389555512
6        115.312216918113        114.785682535958        108.694243927246    0.000447720285326494    0.000912116514685272     -0.0252021082912634
7        115.298403984247        117.249084324607        108.682916119219    -0.00048989470347621    0.000177990894973042     -0.0461335813599218
8        116.687056617927        117.212921023088        108.645320576505     0.00012963991554524    -0.00139524918569015      0.0379645216055424
9         114.49844307191        113.529132392328        108.637540151153    0.000834810325112462    -0.00127611185324679      0.0702921231368232
10        117.431564515354        113.522412436509        108.627865032623     0.00507849686972794     0.00195387563256668       0.118562235699833
11        114.523634939462        118.432117040582        108.667625388689    -0.00014855660057279   -0.000135933354550646      0.0341116521986368
12        117.502225760497        118.470866464021        108.703419649842   -0.000974546066766753     0.00125769182817271     -0.0830606487419169
13        113.159472615826        113.594605943488        108.689015355591    -0.00117646819080383     0.00082275695117866     -0.0591992255008509
14        113.137113713799         118.41921966796        108.671518905685    0.000514234910914762    0.000622262697465326     -0.0346851161441834
15        118.855773028239        113.572997095643        108.661658802071    0.000803854816328512   -0.000542905459378415      -0.021637017769687
16        118.839547731304        118.403744430388        108.650295959808     0.00125967330197074   -0.000942287881128146      0.0679665420042843
17        112.395856940902        117.163381046403        108.625915102763    -0.00192501092610549    0.000868929046848068     -0.0364098920948602
18        112.446614641066        114.788665397389        108.674239582326     0.00532490323553039    0.000461451689895133      -0.137440907944146
19        119.559740458772        114.791546374352         108.66997326208    -0.00615037525748084     0.00156313191703144      -0.137408470990896
20        119.552366417657        117.209645685588        108.665032442629   -0.000149449679961096    0.000127913212417357     -0.0135174212885289
21        120.912087560557        114.781387623755        108.613806537933     0.00615885931367523    -0.00495727797877698       0.413712236386016
22        120.948260379363        117.153757246688        108.652323017113    0.000277781522680255    0.000306812675158364       0.043035930156022
23        110.988099805856        114.781932962188        108.624328132695     0.00273617597442958    -0.00112652591723941       0.539916044063154
24        110.997878675258        117.127908634386        108.636450662112      0.0101648372071392   -0.000282325968770118       0.313158923398972
25        121.590205460888        115.995476078266        108.660333000148   -0.000175552157936811     0.00465140334424812      -0.137699211987217
26        110.410966687425        116.005026091618        108.681130112953    -0.00829985014080648      0.0040726389346922      -0.283848474354702
27        121.596584280829        118.173310375932        108.644242235005    -7.7015847575325e-05   -7.27419777964185e-05      -0.015356870685919
28        121.580041782382        113.764561065376        108.623293495682   -0.000211743969684486    -0.00153051726473669      -0.149134776586481
29        110.384958911798        118.199769648366         108.68199816107    -0.00486451351977433     0.00215766963477259      -0.116236424821932
30        110.369891935419        113.792495861888        108.662524945159    -0.00454949385834165    -0.00530590047828196      -0.211074882259929
31        112.599856212062        112.615444189913        108.656843389819   -2.23844470907397e-05    -0.00054854103925357      0.0170843495729129
32        112.621429594883        119.378809415493        108.685180094284    -4.3857680622395e-05   -9.87324257823503e-05     0.00527962216627248
33        119.402472724699        112.644422926379        108.679013191747   -1.12104580051799e-05    2.55581972340185e-06    0.000489906146133363
34        119.404590002459        119.388332055706        108.687893795317    5.59453755155255e-05    0.000662759757406714     -0.0181967006471874
35        114.944652295679        112.551326286691        108.639219722812    2.82951089771413e-05    -1.9394577328355e-05      -0.018808173246214
36        114.991472957729        119.437769995188        108.692901849047    0.000127019695461804    0.000149135848234066    -0.00828452821550067
37        117.067360240956        112.620393226674        108.706222316935    -0.00276744002909445     -0.0026649598364933     -0.0435410502500875
38        117.041422143279        119.434078176332        108.687145685748   -0.000163749448067139     0.00030566984298061       0.022728396640562
39                     100                     100              105.656854                       0                       0                       0
40                     100                     100              102.828427                       0                       0                       0
41                     100                     100                     100                       0                       0                       0
42                     102                     102              105.656854                       0                       0                       0
43                     102                     102              102.828427                       0                       0                       0
44                     102                     102                     100                       0                       0                       0
45                     104                     100              105.656854                       0                       0                       0
46                     104                     100              102.828427                       0                       0                       0
47                     104                     100                     100                       0                       0                       0
48                     106                     102              105.656854                       0                       0                       0
49                     106                     102              102.828427                       0                       0                       0
50                     106                     102                     100                       0                       0                       0
51                     108                     100              105.656854                       0                       0                       0
52                     108                     100              102.828427                       0                       0                       0
53                     108                     100                     100                       0                       0                       0
54                     110                     102              105.656854                       0                       0                       0
55                     110                     102              102.828427                       0                       0                       0
56                     110                     102                     100                       0                       0                       0
57                     112                     100              105.656854                       0                       0                       0
58                     112                     100              102.828427                       0                       0                       0
59                     112                     100                     100                       0                       0                       0
60                     114                     102              105.656854                       0                       0                       0
61                     114                     102              102.828427                       0                       0                       0
62                     114                     102                     100                       0                       0                       0
63                     116                     100              105.656854                       0                       0                       0
64                     116                     100              102.828427                       0                       0                       0
65                     116                     100                     100                       0                       0                       0
66                     118                     102              105.656854                       0                       0                       0
67                     118                     102              102.828427                       0                       0                       0
68                     118                     102                     100                       0                       0                       0
69                     120                     100              105.656854                       0                       0                       0
70                     120                     100              102.828427                       0                       0                       0
71                     120                     100                     100                       0                       0                       0
72                     122                     102              105.656854                       0                       0                       0
73                     122                     102              102.828427                       0                       0                       0
74                     122                     102                     100                       0                       0                       0
75                     124                     100              105.656854                       0                       0                       0
76                     124                     100              102.828427                       0                       0                       0
77                     124                     100                     100                       0                       0                       0
78                     126                     102              105.656854                       0                       0                       0
79                     126                     102              102.828427                       0                       0                       0
80                     126                     102                     100                       0                       0                       0
81                     128                     100              105.656854                       0                       0                       0
82                     128                     100              102.828427                       0                       0                       0
83                     128                     100                     100                       0                       0                       0
84                     130                     102              105.656854                       0                       0                       0
85                     130                     102              102.828427                       0                       0                       0
86                     130                     102                     100                       0                       0                       0
87                     100                     104              105.656854                       0                       0                       0
88                     100                     104              102.828427                       0                       0                       0
89                     100                     104                     100                       0                       0                       0
90                     102                     106              105.656854                       0                       0                       0
91                     102                     106              102.828427                       0                       0                       0
92                     102                     106                     100                       0                       0                       0
93                     104                     104              105.656854                       0                       0                       0
94                     104                     104              102.828427                       0                       0                       0
95                     104                     104                     100                       0                       0                       0
96                     106                     106              105.656854                       0                       0                       0
97                     106                     106              102.828427                       0                       0                       0
98                     106                     106                     100                       0                       0                       0
99                     108                     104              105.656854                       0                       0                       0
100                     108                     104              102.828427                       0                       0                       0
101                     108                     104                     100                       0                       0                       0
102                     110                     106              105.656854                       0                       0                       0
103                     110                     106              102.828427                       0                       0                       0
104                     110                     106                     100                       0                       0                       0
105                     112                     104              105.656854                       0                       0                       0
106                     112                     104              102.828427                       0                       0                       0
107                     112                     104                     100                       0                       0                       0
108                     114                     106              105.656854                       0                       0                       0
109                     114                     106              102.828427                       0                       0                       0
110                     114                     106                     100                       0                       0                       0
111                     116                     104              105.656854                       0                       0                       0
112                     116                     104              102.828427                       0                       0                       0
113                     116                     104                     100                       0                       0                       0
114                     118                     106              105.656854                       0                       0                       0
115                     118                     106              102.828427                       0                       0                       0
116                     118                     106                     100                       0                       0                       0
117                     120                     104              105.656854                       0                       0                       0
118                     120                     104              102.828427                       0                       0                       0
119                     120                     104                     100                       0                       0                       0
120                     122                     106              105.656854                       0                       0                       0
121                     122                     106              102.828427                       0                       0                       0
122                     122                     106                     100                       0                       0                       0
123                     124                     104              105.656854                       0                       0                       0
124                     124                     104              102.828427                       0                       0                       0
125                     124                     104                     100                       0                       0                       0
126                     126                     106              105.656854                       0                       0                       0
127                     126                     106              102.828427                       0                       0                       0
128                     126                     106                     100                       0                       0                       0
129                     128                     104              105.656854                       0                       0                       0
130                     128                     104              102.828427                       0                       0                       0
131                     128                     104                     100                       0                       0                       0
132                     130                     106              105.656854                       0                       0                       0
133                     130                     106              102.828427                       0                       0                       0
134                     130                     106                     100                       0                       0                       0
135                     100                     108              105.656854                       0                       0                       0
136                     100                     108              102.828427                       0                       0                       0
137                     100                     108                     100                       0                       0                       0
138                     102                     110              105.656854                       0                       0                       0
139                     102                     110              102.828427                       0                       0                       0
140                     102                     110                     100                       0                       0                       0
141                     104                     108              105.656854                       0                       0                       0
142                     104                     108              102.828427                       0                       0                       0
143                     104                     108                     100                       0                       0                       0
144                     106                     110              105.656854                       0                       0                       0
145                     106                     110              102.828427                       0                       0                       0
146                     106                     110                     100                       0                       0                       0
147                     108                     108              105.656854                       0                       0                       0
148                     108                     108              102.828427                       0                       0                       0
149                     108                     108                     100                       0                       0                       0
150                     110                     110              105.656854                       0                       0                       0
151                     110                     110              102.828427                       0                       0                       0
152                     110                     110                     100                       0                       0                       0
153                     112                     108              105.656854                       0                       0                       0
154                     112                     108              102.828427                       0                       0                       0
155                     112                     108                     100                       0                       0                       0
156                     114                     110              105.656854                       0                       0                       0
157                     114                     110              102.828427                       0                       0                       0
158                     114                     110                     100                       0                       0                       0
159                     116                     108              105.656854                       0                       0                       0
160                     116                     108              102.828427                       0                       0                       0
161                     116                     108                     100                       0                       0                       0
162                     118                     110              105.656854                       0                       0                       0
163                     118                     110              102.828427                       0                       0                       0
164                     118                     110                     100                       0                       0                       0
165                     120                     108              105.656854                       0                       0                       0
166                     120                     108              102.828427                       0                       0                       0
167                     120                     108                     100                       0                       0                       0
168                     122                     110              105.656854                       0                       0                       0
169                     122                     110              102.828427                       0                       0                       0
170                     122                     110                     100                       0                       0                       0
171                     124                     108              105.656854                       0                       0                       0
172                     124                     108              102.828427                       0                       0                       0
173                     124                     108                     100                       0                       0                       0
174                     126                     110              105.656854                       0                       0                       0
175                     126                     110              102.828427                       0                       0                       0
176                     126                     110                     100                       0                       0                       0
177                     128                     108              105.656854                       0                       0                       0
178                     128                     108              102.828427                       0                       0                       0
179                     128                     108                     100                       0                       0                       0
180                     130                     110              105.656854                       0                       0                       0
181                     130                     110              102.828427                       0                       0                       0
182                     130                     110                     100                       0                       0                       0
183                     100                     112              105.656854                       0                       0                       0
184                     100                     112              102.828427                       0                       0                       0
185                     100                     112                     100                       0                       0                       0
186                     102                     114              105.656854                       0                       0                       0
187                     102                     114              102.828427                       0                       0                       0
188                     102                     114                     100                       0                       0                       0
189                     104                     112              105.656854                       0                       0                       0
190                     104                     112              102.828427                       0                       0                       0
191                     104                     112                     100                       0                       0                       0
192                     106                     114              105.656854                       0                       0                       0
193                     106                     114              102.828427                       0                       0                       0
194                     106                     114                     100                       0                       0                       0
195                     108                     112              105.656854                       0                       0                       0
196                     108                     112              102.828427                       0                       0                       0
197                     108                     112                     100                       0                       0                       0
198                     110                     114              105.656854                       0                       0                       0
199                     110                     114              102.828427                       0                       0                       0
200                     110                     114                     100                       0                       0                       0
201                     112                     112              105.656854                       0                       0                       0