ITEM: TIMESTEP
0
ITEM: NUMBER OF ATOMS
422
ITEM: BOX BOUNDS ff ff ff
0.0000000000000000e+00 2.3200000000000000e+02
0.0000000000000000e+00 2.3200000000000000e+02
0.0000000000000000e+00 2.3200000000000000e+02
ITEM: ATOMS id xu yu zu fx fy fz
1        113.114649431328        115.952238053167         108.62557123749        8.20089462497194        8.05656062456604      -0.585712739153864
2        118.778156014753        115.939897416317        108.607525174682        5.31563267400939        6.56559387749751      -0.607189283827535
3        117.441648291507        116.027098410355         108.69615729759       -7.16792092466216       -3.22404227469644        0.31267637053867
4        114.566714106307        115.980594010294        108.652496067358       0.356656915286097       0.353216122577541       0.129075525563345
5        116.722569832948        114.771219515342        108.678348665179       -6.02028651837453       -4.13769142915933        0.47919031094599
6        115.264878115368        114.738343733212        108.646905124501        6.09742555795046       0.794246857339418      -0.194988763521855
7         115.31515199121         117.26583233157        108.699664126183       -3.90191064437235       -2.89120901524263       0.105415432734138
8        116.667053250447        117.192917655608        108.625317209025        4.89647652662296        9.97703546628633      0.0502443197222495
9        114.519311211474        113.550000531892        108.658408290716         5.5062805842561        -8.2174952486459      0.0237645942125941
10        117.496723248975         113.58757117013        108.693023766244         -9.130834103424       -8.86273028100637       0.234048024829006
11        114.463904791703        118.372386892823         108.60789524093        11.8520368955199        12.8581657194741      -0.434984908568012
12        117.498209183086         118.46684988661        108.699403072431       -9.12537927127111        3.61356104302129     -0.0471743254468873
13        113.162763664728         113.59789699239        108.692306404492       -9.11424684270666       -14.1960410197009       0.293090233838149
14        113.145607295388        118.427713249549        108.680012487275       -8.63876475498992        4.65806534174163        0.32434218194738
15        118.834177425424        113.551401492828        108.640063199256        8.98664977504354       -6.77006952924455      -0.175371271945778
16        118.853928101616        118.418124800701         108.66467633012        5.38114532677449        6.90132379295373       0.210590491554456
17        112.444833141945        117.212357247446        108.674891303806       -6.58692540723923       -2.45225133243205       0.353539773726355
18        112.425855193781        114.767905950105        108.653480135042       -2.66589479861269       -2.92977195924283      0.0234281166102602
19        119.554625809534        114.786431725114        108.664858612842        1.88247080084303       -3.58681838940298      -0.131526404261281
20        119.529590683915        117.186869951846        108.642256708887        3.55395614864113         2.9075763023441      -0.543705488006213
21        120.944477242616        114.813777305814        108.646196219992        8.95361746327026       -10.6820206716655       0.250615659767799
22        120.909198655094        117.114695522419        108.613261292843        13.9771141518645        18.3501789034404       0.211107110745517
23         111.05103996328        114.844873119611        108.687268290119       -15.8017515225324       -19.0792436965944        0.17269724666312
24        111.001039086099        117.131069045227        108.639611072953       -5.50160941887528        15.8386547970812      -0.253387299147555
25        121.576472050762        115.981742668141        108.646599590023        5.25159541647334       0.917818798417863      -0.110775377509501
26        110.405709041053        115.999768445246        108.675872466581       -6.24187789134819       -3.44579763623408       0.190570716447016
27        121.645567012932        118.222293108034        108.693224967108       -1.01720434566261       -2.55421672219535      -0.353837235032391
28        121.619337282282        113.803856565277        108.662588995582        5.11089105788355       -6.28180721581643      0.0272297496435964
29        110.362615533601         118.17742627017        108.659654782873       -4.51701183588152         5.4657483845265     -0.0725386278030338
30        110.332691442653        113.755295369122        108.625324452392      -0.558672484735743       0.843420680364264       0.182382864135127
31        112.560980622646        112.576568600496        108.617967800403       -0.46621953676958       -1.03326909191319       0.111249231426752
32        112.558549199288        119.315929019897        108.622299698688       -3.35853898553418        6.70640155300321      -0.113048772771381
33         119.41229047313         112.65424067481        108.688830940178        3.22786909139822       -5.85190235633424      0.0572074163046399
34        119.408411327735        119.392153380982        108.691715120593          2.771288383834        3.14920312834818      0.0130006611453869
35        114.958934230595        112.565608221608        108.653501657728        3.87298928985538       -5.45826180070906      -0.101976536716712
36        114.959040514065        119.405337551524        108.660469405383        3.22735224096726        4.03308399939162      -0.205963669887369
37        117.035519696856        112.588552682573        108.674381772834       -4.75144069726243       -5.12150203296074       0.125452192401891
38        117.028215385152        119.420871418206        108.673938927621        -3.8558529412109        4.78628631082203      0.0512624786959299
39                     100                     100              105.656854                       0                       0                       0
40                     100                     100              102.828427                       0                       0                       0
41                     100                     100                     100                       0                       0                       0
42                     102                     102              105.656854                       0                       0                       0
43                     102                     102              102.828427                       0                       0                       0
44                     102                     102                     100                       0                       0                       0
45                     104                     100              105.656854                       0                       0                       0
46                     104                     100              102.828427                       0                       0                       0
47                     104                     100                     100                       0                       0                       0
48                     106                     102              105.656854                       0                       0                       0
49                     106                     102              102.828427                       0                       0                       0
50                     106                     102                     100                       0                       0                       0
51                     108                     100              105.656854                       0                       0                       0
52                     108                     100              102.828427                       0                       0                       0
53                     108                     100                     100                       0                       0                       0
54                     110                     102              105.656854                       0                       0                       0
55                     110                     102              102.828427                       0                       0                       0
56                     110                     102                     100                       0                       0                       0
57                     112                     100              105.656854                       0                       0                       0
58                     112                     100              102.828427                       0                       0                       0
59                     112                     100                     100                       0                       0                       0
60                     114                     102              105.656854                       0                       0                       0
61                     114                     102              102.828427                       0                       0                       0
62                     114                     102                     100                       0                       0                       0
63                     116                     100              105.656854                       0                       0                       0
64                     116                     100              102.828427                       0                       0                       0
65                     116                     100                     100                       0                       0                       0
66                     118                     102              105.656854                       0                       0                       0
67                     118                     102              102.828427                       0                       0                       0
68                     118                     102                     100                       0                       0                       0
69                     120                     100              105.656854                       0                       0                       0
70                     120                     100              102.828427                       0                       0                       0
71                     120                     100                     100                       0                       0                       0
72                     122                     102              105.656854                       0                       0                       0
73                     122                     102              102.828427                       0                       0                       0
74                     122                     102                     100                       0                       0                       0
75                     124                     100              105.656854                       0                       0                       0
76                     124                     100              102.828427                       0                       0                       0
77                     124                     100                     100                       0                       0                       0
78                     126                     102              105.656854                       0                       0                       0
79                     126                     102              102.828427                       0                       0                       0
80                     126                     102                     100                       0                       0                       0
81                     128                     100              105.656854                       0                       0                       0
82                     128                     100              102.828427                       0                       0                       0
83                     128                     100                     100                       0                       0                       0
84                     130                     102              105.656854                       0                       0                       0
85                     130                     102              102.828427                       0                       0                       0
86                     130                     102                     100                       0                       0                       0
87                     100                     104              105.656854                       0                       0                       0
88                     100                     104              102.828427                       0                       0                       0
89                     100                     104                     100                       0                       0                       0
90                     102                     106              105.656854                       0                       0                       0
91                     102                     106              102.828427                       0                       0                       0
92                     102                     106                     100                       0                       0                       0
93                     104                     104              105.656854                       0                       0                       0
94                     104                     104              102.828427                       0                       0                       0
95                     104                     104                     100                       0                       0                       0
96                     106                     106              105.656854                       0                       0                       0
97                     106                     106              102.828427                       0                       0                       0
98                     106                     106                     100                       0                       0                       0
99                     108                     104              105.656854                       0                       0                       0
100                     108                     104              102.828427                       0                       0                       0
101                     108                     104                     100                       0                       0                       0
102                     110                     106              105.656854                       0                       0                       0
103                     110                     106              102.828427                       0                       0                       0
104                     110                     106                     100                       0                       0                       0
105                     112                     104              105.656854                       0                       0                       0
106                     112                     104              102.828427                       0                       0                       0
107                     112                     104                     100                       0                       0                       0
108                     114                     106              105.656854                       0                       0                       0
109                     114                     106              102.828427                       0                       0                       0
110                     114                     106                     100                       0                       0                       0
111                     116                     104              105.656854                       0                       0                       0
112                     116                     104              102.828427                       0                       0                       0
113                     116                     104                     100                       0                       0                       0
114                     118                     106              105.656854                       0                       0                       0
115                     118                     106              102.828427                       0                       0                       0
116                     118                     106                     100                       0                       0                       0
117                     120                     104              105.656854                       0                       0                       0
118                     120                     104              102.828427                       0                       0                       0
119                     120                     104                     100                       0                       0                       0
120                     122                     106              105.656854                       0                       0                       0
121                     122                     106              102.828427                       0                       0                       0
122                     122                     106                     100                       0                       0                       0
123                     124                     104              105.656854                       0                       0                       0
124                     124                     104              102.828427                       0                       0                       0
125                     124                     104                     100                       0                       0                       0
126                     126                     106              105.656854                       0                       0                       0
127                     126                     106              102.828427                       0                       0                       0
128                     126                     106                     100                       0                       0                       0
129                     128                     104              105.656854                       0                       0                       0
130                     128                     104              102.828427                       0                       0                       0
131                     128                     104                     100                       0                       0                       0
132                     130                     106              105.656854                       0                       0                       0
133                     130                     106              102.828427                       0                       0                       0
134                     130                     106                     100                       0                       0                       0
135                     100                     108              105.656854                       0                       0                       0
136                     100                     108              102.828427                       0                       0                       0
137                     100                     108                     100                       0                       0                       0
138                     102                     110              105.656854                       0                       0                       0
139                     102                     110              102.828427                       0                       0                       0
140                     102                     110                     100                       0                       0                       0
141                     104                     108              105.656854                       0                       0                       0
142                     104                     108              102.828427                       0                       0                       0
143                     104                     108                     100                       0                       0                       0
144                     106                     110              105.656854                       0                       0                       0
145                     106                     110              102.828427                       0                       0                       0
146                     106                     110                     100                       0                       0                       0
147                     108                     108              105.656854                       0                       0                       0
148                     108                     108              102.828427                       0                       0                       0
149                     108                     108                     100                       0                       0                       0
150                     110                     110              105.656854                       0                       0                       0
151                     110                     110              102.828427                       0                       0                       0
152                     110                     110                     100                       0                       0                       0
153                     112                     108              105.656854                       0                       0                       0
154                     112                     108              102.828427                       0                       0                       0
155                     112                     108                     100                       0                       0                       0
156                     114                     110              105.656854                       0                       0                       0
157                     114                     110              102.828427                       0                       0                       0
158                     114                     110                     100                       0                       0                       0
159                     116                     108              105.656854                       0                       0                       0
160                     116                     108              102.828427                       0                       0                       0
161                     116                     108                     100                       0                       0                       0
162                     118                     110              105.656854                       0                       0                       0
163                     118                     110              102.828427                       0                       0                       0
164                     118                     110                     100                       0                       0                       0
165                     120                     108              105.656854                       0                       0                       0
166                     120                     108              102.828427                       0                       0                       0
167                     120                     108                     100                       0                       0                       0
168                     122                     110              105.656854                       0                       0                       0
169                     122                     110              102.828427                       0                       0                       0
170                     122                     110                     100                       0                       0                       0
171                     124                     108              105.656854                       0                       0                       0
172                     124                     108              102.828427                       0                       0                       0
173                     124                     108                     100                       0                       0                       0
174                     126                     110              105.656854                       0                       0                       0
175                     126                     110              102.828427                       0                       0                       0
176                     126                     110                     100                       0                       0                       0
177                     128                     108              105.656854                       0                       0                       0
178                     128                     108              102.828427                       0                       0                       0
179                     128                     108                     100                       0                       0                       0
180                     130                     110              105.656854                       0                       0                       0
181                     130                     110              102.828427                       0                       0                       0
182                     130                     110                     100                       0                       0                       0
183                     100                     112              105.656854                       0                       0                       0
184                     100                     112              102.828427                       0                       0                       0
185                     100                     112                     100                       0                       0                       0
186                     102                     114              105.656854                       0                       0                       0
187                     102                     114              102.828427                       0                       0                       0
188                     102                     114                     100                       0                       0                       0
189                     104                     112              105.656854                       0                       0                       0
190                     104                     112              102.828427                       0                       0                       0
191                     104                     112                     100                       0                       0                       0
192                     106                     114              105.656854                       0                       0                       0
193                     106                     114              102.828427                       0                       0                       0
194                     106                     114                     100                       0                       0                       0
195                     108                     112              105.656854                       0                       0                       0
196                     108                     112              102.828427                       0                       0                       0
197                     108                     112                     100                       0                       0                       0
198                     110                     114              105.656854                       0                       0                       0
199                     110                     114              102.828427                       0                       0                       0
200                     110                     114                     100                       0                       0                       0
201                     112                     112              105.656854                       0                       0                       0