ITEM: TIMESTEP
0
ITEM: NUMBER OF ATOMS
422
ITEM: BOX BOUNDS pp pp pp
0.0000000000000000e+00 3.2000000000000000e+01
0.0000000000000000e+00 3.2000000000000000e+01
0.0000000000000000e+00 3.2000000000000000e+01
ITEM: ATOMS id xu yu zu fx fy fz
1        13.1459321938386        15.9835208156773                 8.85685    -0.00295900459250195    0.000274650013283292    -0.00717338724913304
2        18.8274848400711        15.9892262416344                 8.85685     0.00295861920247956    0.000184664590137662    -0.00688458476980052
3         17.402344993917         15.987795112765                 8.85685      -0.002694535887029    0.000256999575734829    -0.00441983625770307
4         14.571072038949        15.9849519429358                 8.85685     0.00263201282030046    0.000323047702232085    -0.00415186224512164
5        16.7010751677692        14.7497248501637                 8.85685     -0.0116338797124008     0.00697934134232484     0.00952025510587644
6        15.2748269908674        14.7482926087119                 8.85685      0.0119369687162144     0.00723977512301033      0.0105856047165139
7        15.2723418650276        17.2230222053877                 8.85685      0.0116447495168591    -0.00734063345245609     0.00992444608830802
8        16.6985900414216        17.2244544465825                 8.85685     -0.0113226879695034    -0.00701484159333686      0.0087541229554595
9        14.5177569207574        13.5484462411751                 8.85685      0.0142985434008469     -0.0124637907777528      0.0643576810317523
10        17.4605534827313        13.5514014038861                 8.85685     -0.0147160770629856     -0.0122291263925016       0.063320239240475
11        14.5128635507729         18.421345651893                 8.85685      0.0144378725550869      0.0118532052307407      0.0659918115800991
12        17.4556601106552        18.4243008141789                 8.85685     -0.0149954544931161      0.0116778041421101      0.0641332768969934
13        13.1273112602358        13.5624445878976                 8.85685     -0.0179590058259989    -0.00899184211082341      0.0429961036353302
14        13.1224488081137        18.4045547622743                 8.85685     -0.0182720732266354     0.00841070569633587      0.0437366580488289
15         18.850968226168        13.5681922935721                 8.85685      0.0179775581414912    -0.00910714773835361      0.0446294080151943
16        18.8461057714963        18.4103024705805                 8.85685      0.0181663910509103     0.00879323730617679       0.045668418690714
17         12.426795838139        17.1943199436399                 8.85685    -0.00722677402054291    -0.00454825607559259    -0.00102985065237518
18        12.4292290587396        14.7712798150634                 8.85685    -0.00751633083158236     0.00453122955869572   -0.000389649490770208
19        19.5466211966922        14.7784271122721                 8.85685     0.00784840631551693     0.00472038196734025    0.000154445189302705
20        19.5441879750283        17.2014672429596                 8.85685     0.00773152039921754    -0.00476064876159538   -0.000128590547206924
21        20.9551350226241        14.8244350858224                 8.85685     -0.0129347283096861      0.0102522327342217       0.018666081322749
22        20.9527913622507        17.1582882295758                 8.85685     -0.0126945552107018      -0.010250294935493      0.0179076875816851
23        11.0206256731611        14.8144588294926                 8.85685      0.0131778523676406      0.0105530954864278      0.0202013632084739
24        11.0182820131454        17.1483119722736                 8.85685      0.0126904390711626     -0.0106485296917169      0.0188653854897542
25        21.5867264607395        15.9919970781177                 8.85685   -0.000667075401805528    7.35681851092037e-05    -0.00856313581936137
26        10.3866905744716        15.9807499786644                 8.85685    0.000635515467093729     0.00017896196234722    -0.00847766862669874
27         21.609196045824        18.1859221409264                 8.85685    -0.00516835962011067     0.00245205542919822      0.0262668450805663
28        21.6136022867001        13.7981215696947                 8.85685    -0.00510075248519042    -0.00265800411483564       0.026195078108177
29        10.3598147507275        18.1746254872963                 8.85685     0.00484023390426024     0.00234363196710134      0.0269846432440308
30        10.3642209902605        13.7868249167297                 8.85685     0.00484310671609481    -0.00282885631165353      0.0265070751419228
31        12.5998668222426        12.6154548000933                 8.85685   -0.000130610691269323   -0.000122260186879282    -0.00947868162352391
32        12.5931035005993        19.3504833212092                 8.85685   -0.000157594908903602    0.000126832034804542    -0.00943856301348248
33        19.3803135329519        12.6222637346313                 8.85685    0.000142915947447415   -0.000141436213917863    -0.00943868513954248
34        19.3735502071424         19.357292260389                 8.85685    0.000163393844027818    0.000154258172072708    -0.00939581619452497
35        14.9622865728669        12.5689605638796                 8.85685    0.000216109534329586   -0.000534072614799291    -0.00878802930392559
36         14.955425108682        19.4017221461408                 8.85685    0.000250246269682008    0.000568779383490758    -0.00868147846542165
37        17.0179919240215        12.5710249097393                 8.85685   -0.000213686055965214   -0.000514517607559165    -0.00882192399907766
38         17.011130457531        19.4037864905846                 8.85685   -0.000239880967707551    0.000529112278055327      -0.008760079041945
39                       0                       0                5.656854                       0                       0                       0
40                       0                       0                2.828427                       0                       0                       0
41                       0                       0                       0                       0                       0                       0
42                       2                       2                5.656854    5.19701009878572e-10    7.32360469626423e-10    1.98827978689693e-10
43                       2                       2                2.828427                       0                       0                       0
44                       2                       2                       0                       0                       0                       0
45                       4                       0                5.656854                       0                       0                       0
46                       4                       0                2.828427                       0                       0                       0
47                       4                       0                       0                       0                       0                       0
48                       6                       2                5.656854    1.65540382173352e-08    3.34662330640609e-08    9.20863711746796e-09
49                       6                       2                2.828427    4.75463855077153e-10    9.69031774318889e-10    5.12762667058609e-10
50                       6                       2                       0                       0                       0                       0
51                       8                       0                5.656854    6.26589029318209e-10    4.37530091571811e-11    4.69310101822286e-10
52                       8                       0                2.828427    3.44743106506755e-10    1.88450007087843e-11    4.52133472929702e-10
53                       8                       0                       0                       0                       0                       0
54                      10                       2                5.656854    7.14074622209445e-08    2.75889283911425e-07    7.77906951387362e-08
55                      10                       2                2.828427    2.26942559367786e-09    9.13171895568386e-09    4.85482964056437e-09
56                      10                       2                       0    8.00402101538553e-10      3.443861812376e-09    2.73583866234036e-09
57                      12                       0                5.656854     1.2655790681873e-09    1.96032026095196e-10    2.18907151281467e-09
58                      12                       0                2.828427    1.13376571988449e-09    1.68380345153412e-10    3.84859438471336e-09
59                      12                       0                       0                       0                       0                       0
60                      14                       2                5.656854    4.43817177785246e-08    6.79984538462155e-07    1.94582646818446e-07
61                      14                       2                2.828427     1.4275361701952e-09    2.21622610900812e-08    1.19176983063074e-08
62                      14                       2                       0    6.61983563424579e-10    8.99845716082192e-09    7.21299411790016e-09
63                      16                       0                5.656854   -6.58313935136014e-12    2.60223903433851e-10    3.27851329448453e-09
64                      16                       0                2.828427   -8.53870131925658e-12    2.55633801985269e-10    6.57743545192979e-09
65                      16                       0                       0                       0                       0                       0
66                      18                       2                5.656854   -4.54564346877675e-08    6.76154017919357e-07     1.9344450249696e-07
67                      18                       2                2.828427   -1.46315578389749e-09     2.2048586619882e-08    1.18539665255927e-08
68                      18                       2                       0    -6.7619586186956e-10    8.95781473499301e-09    7.17892208776382e-09
69                      20                       0                5.656854   -1.23782606451019e-09    2.04910175179874e-10    2.16276702571154e-09
70                      20                       0                2.828427    -1.1410794427302e-09    1.28350365140174e-10    3.82850377060684e-09
71                      20                       0                       0                       0                       0                       0
72                      22                       2                5.656854   -7.07473174435551e-08    2.71359375905481e-07    7.64740690648307e-08
73                      22                       2                2.828427   -2.25183490292214e-09    8.99384385056895e-09    4.77900724635838e-09
74                      22                       2                       0   -7.95852195480813e-10     3.3977645349557e-09     2.6976368697743e-09
75                      24                       0                5.656854   -6.21783051220321e-10    2.83279994049635e-11    4.63416145074554e-10
76                      24                       0                2.828427   -3.42201574098453e-10    1.36394794889562e-11    4.46231596456855e-10
77                      24                       0                       0                       0                       0                       0
78                      26                       2                5.656854   -1.59950414102771e-08    3.19947574180257e-08    8.82677335217773e-09
79                      26                       2                2.828427   -4.65849599047008e-10    9.46219193538682e-10    5.00329327175413e-10
80                      26                       2                       0                       0                       0                       0
81                      28                       0                5.656854                       0                       0                       0
82                      28                       0                2.828427                       0                       0                       0
83                      28                       0                       0                       0                       0                       0
84                      30                       2                5.656854   -5.03786181674212e-10    7.08734646235367e-10    1.92229586686084e-10
85                      30                       2                2.828427                       0                       0                       0
86                      30                       2                       0                       0                       0                       0
87                       0                       4                5.656854    5.20477365714338e-12    2.85549934127874e-10    9.33133289961914e-11
88                       0                       4                2.828427                       0                       0                       0
89                       0                       4                       0                       0                       0                       0
90                       2                       6                5.656854    9.21930997495911e-08    8.45870863323979e-08    3.35797437436522e-08
91                       2                       6                2.828427    3.24285850956617e-09    2.93905226139901e-09    2.19790124889179e-09
92                       2                       6                       0    8.92568672940303e-10    8.30953174292862e-10    9.45138448653677e-10
93                       4                       4                5.656854    1.03521906544551e-08    1.41340487851041e-08    4.59335825250335e-09
94                       4                       4                2.828427    1.17875909851093e-08    1.62832857510212e-08    9.92243533659075e-09
95                       4                       4                       0    8.81751708932156e-11    1.35594750850929e-10    1.22710110714369e-10
96                       6                       6                5.656854    2.99257169222018e-06     4.4293737912686e-06    1.80128609505659e-06
97                       6                       6                2.828427    7.72555154844592e-08    1.12716252050522e-07    8.57318950149414e-08
98                       6                       6                       0    2.82801059762044e-08    4.05623189344708e-08    4.54655954858159e-08
99                       8                       4                5.656854    1.17901956244795e-07    2.76880542394523e-07    9.24393574364971e-08
100                       8                       4                2.828427    1.12311742478931e-07    2.61670675317969e-07    1.63666551540233e-07
101                       8                       4                       0     1.4436990146577e-09    3.35434957277036e-09    3.09232869641835e-09
102                      10                       6                5.656854    1.92496973960391e-05    5.73469561437444e-05    2.45645659046085e-05
103                      10                       6                2.828427    3.73466621881492e-07    1.09258814957398e-06    8.67389105355679e-07
104                      10                       6                       0     1.0874886551382e-07     3.1068096383942e-07    3.56740670371326e-07
105                      12                       4                5.656854    2.35948115637031e-07    1.41484462861741e-06    4.87818117803648e-07
106                      12                       4                2.828427    1.98841803851271e-07    1.15749788349507e-06    7.44428347088218e-07
107                      12                       4                       0    2.37100810071851e-09    1.34356245553317e-08    1.26061736183151e-08
108                      14                       6                5.656854    1.07316218825823e-05    0.000161304466464415    7.14372670753347e-05
109                      14                       6                2.828427    2.06117146556101e-07     2.7194247695108e-06     2.2251303108789e-06
110                      14                       6                       0    5.95559402658268e-08    6.96555932888135e-07    8.20002011630817e-07
111                      16                       4                5.656854   -2.20627462587819e-09    2.11787387643621e-06    7.37660472453481e-07
112                      16                       4                2.828427   -1.77419836182828e-09    1.69582682883555e-06    1.10120157171648e-06
113                      16                       4                       0   -2.02634295702573e-11    1.92535688046885e-08    1.82217738145275e-08
114                      18                       6                5.656854   -1.10401871422946e-05     0.00016034852415316    7.09828147981689e-05
115                      18                       6                2.828427   -2.11376714497098e-07    2.70576280298513e-06    2.21307977445325e-06
116                      18                       6                       0   -6.09273631427895e-08    6.93621048058819e-07    8.16259057654442e-07
117                      20                       4                5.656854   -2.36155708905496e-07    1.39810498762752e-06    4.81789415797788e-07
118                      20                       4                2.828427   -1.99209896198481e-07    1.14538043376163e-06    7.36266472043635e-07
119                      20                       4                       0   -2.37805478536959e-09      1.331446118691e-08    1.24865301080509e-08
120                      22                       6                5.656854   -1.90255659920066e-05    5.62730384811962e-05    2.40813317424962e-05
121                      22                       6                2.828427   -3.70097925854362e-07    1.07512349837483e-06    8.52773652735584e-07
122                      22                       6                       0    -1.0803085511828e-07    3.06514385366518e-07    3.51671712421508e-07
123                      24                       4                5.656854   -1.15786694427972e-07    2.70591000951509e-07     9.0269756676356e-08
124                      24                       4                2.828427   -1.10542287454688e-07    2.56316740004785e-07    1.60198708154135e-07
125                      24                       4                       0   -1.42456951498395e-09    3.29443315655748e-09    3.03481303589105e-09
126                      26                       6                5.656854    -2.9155643168451e-06    4.30088400481263e-06    1.74710466710446e-06
127                      26                       6                2.828427   -7.53621072490049e-08    1.09720103706426e-07    8.33621502065131e-08
128                      26                       6                       0   -2.77445557115912e-08    3.96691685220142e-08    4.44186216601285e-08
129                      28                       4                5.656854   -1.00614980711895e-08    1.37029098853275e-08    4.44933343881026e-09
130                      28                       4                2.828427   -1.14827398572197e-08    1.58236686579308e-08     9.6338173346414e-09
131                      28                       4                       0    -8.6129383458786e-11    1.32141186273849e-10    1.19446840634169e-10
132                      30                       6                5.656854   -8.91201202791484e-08    8.17019446868724e-08    3.23983571307041e-08
133                      30                       6                2.828427   -3.14504993741049e-09    2.84605208110923e-09    2.12593484338801e-09
134                      30                       6                       0   -8.68753508052149e-10    8.07813521548783e-10     9.1748802892918e-10
135                       0                       8                5.656854    3.67399176287228e-10    1.18631481406407e-08     6.0208314976935e-09
136                       0                       8                2.828427    3.62146874580428e-10    1.26751731440075e-08    1.22760812218683e-08
137                       0                       8                       0    3.22294710051102e-12     1.2359591935791e-10    1.88984420508374e-10
138                       2                      10                5.656854     2.9595939094431e-06    1.50236961478616e-06    1.09241792583218e-06
139                       2                      10                2.828427    7.84499449740632e-08      4.021960561047e-08    5.40677920849084e-08
140                       2                      10                       0    3.02511896277884e-08    1.56167918628177e-08    3.03287692163313e-08
141                       4                       8                5.656854    9.32051386590346e-07     8.2837280950797e-07    4.33439612411905e-07
142                       4                       8                2.828427    7.25690322610613e-07    6.42231334175248e-07    6.25589467150062e-07
143                       4                       8                       0    7.98569102419247e-09    7.03059558436372e-09    9.98487737954697e-09
144                       6                      10                5.656854    0.000244772359504262    0.000209102913922332    0.000161075976457461
145                       6                      10                2.828427    3.24837658021089e-06    2.75235367221923e-06    3.87075754827759e-06
146                       6                      10                       0    6.91731276241241e-07    5.80794298234411e-07     1.1600180317127e-06
147                       8                       8                5.656854    2.04861232092531e-05    3.44463052623552e-05    1.89111421147371e-05
148                       8                       8                2.828427    9.95009694202763e-06    1.61533785714973e-05    1.64076512065176e-05
149                       8                       8                       0    7.25298555420643e-08    1.14169829237687e-07    1.66837875282306e-07
150                      10                      10                5.656854     0.00240737946239493     0.00483252586500689     0.00407914909436531
151                      10                      10                2.828427    1.89509473768569e-05    3.61891947707959e-05    5.47598717789663e-05
152                      10                      10                       0    2.68210991850919e-06    4.83206677824811e-06    1.02205813408113e-05
153                      12                       8                5.656854    5.33389296206842e-05    0.000246898033651616    0.000147473846803694
154                      12                       8                2.828427    1.89323841956928e-05    8.31776633191014e-05    9.00596559215558e-05
155                      12                       8                       0    1.10854749226507e-07    4.57256106922598e-07    7.00927184976449e-07
156                      14                      10                5.656854    0.000853481744644988      0.0129225310272457       0.012062047145073
157                      14                      10                2.828427    7.51597304178206e-06    8.53062222029138e-05    0.000139928409954928
158                      14                      10                       0    1.17062656413429e-06    1.00801377676543e-05    2.25899281586889e-05
159                      16                       8                5.656854   -3.97928230711602e-07    0.000360853668112962    0.000220708260070164
160                      16                       8                2.828427   -1.37456858631775e-07    0.000117750295494036    0.000130377208883169
161                      16                       8                       0   -7.76931498514593e-10    6.31154622771117e-07    9.86515274906245e-07
162                      18                      10                5.656854    -0.00089077362091836      0.0128775174016526      0.0120083814572261
163                      18                      10                2.828427   -7.75315142563832e-06    8.50238506841741e-05    0.000139342326274144
164                      18                      10                       0   -1.19841807143356e-06    1.00518749225966e-05    2.25104030143399e-05
165                      20                       8                5.656854   -5.33729663769409e-05    0.000243782215445143    0.000145445677935839
166                      20                       8                2.828427   -1.89791015619612e-05    8.23516166344634e-05     8.9076233218693e-05
167                      20                       8                       0   -1.11249678748932e-07    4.53598574537607e-07    6.94719877336499e-07
168                      22                      10                5.656854    -0.00238014481461408     0.00474642527003327     0.00399751957903236
169                      22                      10                2.828427   -1.88039211453907e-05    3.56693910023117e-05    5.38717950386561e-05
170                      22                      10                       0     -2.668512340285e-06    4.77706210608203e-06     1.0088643909942e-05
171                      24                       8                5.656854   -2.00509491244221e-05    3.35526842705554e-05    1.83925014053764e-05
172                      24                       8                2.828427   -9.78176677405109e-06    1.58081415899684e-05     1.6035122147643e-05
173                      24                       8                       0   -7.15678534679758e-08    1.12165458928809e-07    1.63710331270272e-07
174                      26                      10                5.656854   -0.000237542938314479    0.000202410499734647    0.000155571726522853
175                      26                      10                2.828427   -3.17185894428382e-06    2.68057320808991e-06    3.76258302979271e-06
176                      26                      10                       0   -6.78769582166292e-07    5.68422227852746e-07    1.13344787087201e-06
177                      28                       8                5.656854   -9.02212674917203e-07    8.00281471957628e-07    4.18109137348739e-07
178                      28                       8                2.828427   -7.05433249416792e-07    6.23062683965246e-07    6.06073406144084e-07
179                      28                       8                       0   -7.79688717526467e-09    6.85058958148087e-09    9.71649080442501e-09
180                      30                      10                5.656854   -2.85408586695191e-06    1.44838430887611e-06    1.05121320445265e-06
181                      30                      10                2.828427   -7.59665089143809e-08    3.89233885508443e-08    5.22387425980692e-08
182                      30                      10                       0   -2.94310322380234e-08    1.51767755976221e-08    2.94269539821387e-08
183                       0                      12                5.656854    3.93961286970324e-09    5.61626932545791e-08    6.31103366150094e-08
184                       0                      12                2.828427    3.66724712007437e-09    5.85737663428723e-08    1.21332934737625e-07
185                       0                      12                       0    3.92837309526391e-11    7.12716260346704e-10    2.22946667618825e-09
186                       2                      14                5.656854    1.71619362130184e-05    2.46694904540237e-06    6.33783699384756e-06
187                       2                      14                2.828427    3.87468659542237e-07    5.91510132965889e-08    2.68399372338185e-07
188                       2                      14                       0    1.28891050750958e-07    2.06161538640876e-08    1.28918529369916e-07
189                       4                      12                5.656854    2.07719455628326e-05    7.91317635063672e-06     9.8845324686601e-06
190                       4                      12                2.828427    1.06722828855573e-05    4.22921040686103e-06    9.39472438901141e-06
191                       4                      12                       0    8.14718666015925e-08    3.33410977504419e-08    1.03132560912414e-07
192                       6                      14                5.656854     0.00267729244875183    0.000557805319414537     0.00179673374012613
193                       6                      14                2.828427    2.32139845171493e-05    5.48277282783008e-06    2.83334269949891e-05
194                       6                      14                       0    3.46185823816158e-06     8.8277789974673e-07    5.94839255394285e-06
195                       8                      12                5.656854     0.00109893099327636    0.000861632068077087     0.00119762857168477
196                       8                      12                2.828427    0.000221536212797372    0.000171716680329797    0.000412779291816243
197                       8                      12                       0    8.61292887788764e-07    6.57694645125471e-07    2.15304456448928e-06
198                      10                      14                5.656854    0.000355369505458333     0.00187485672486382     -0.0495348538536539
199                      10                      14                2.828427     0.00013677462024973    8.29333354430621e-05    0.000487625533763421
200                      10                      14                       0    1.28217162925848e-05    7.55917069796293e-06      5.569101063823e-05
201                      12                      12                5.656854     0.00177836201442868     0.00505245410690045     0.00801975838228802