ITEM: TIMESTEP
0
ITEM: NUMBER OF ATOMS
422
ITEM: BOX BOUNDS pp pp pp
0.0000000000000000e+00 3.2000000000000000e+01
0.0000000000000000e+00 3.2000000000000000e+01
0.0000000000000000e+00 3.2000000000000000e+01
ITEM: ATOMS id xu yu zu fx fy fz
1        13.1459321938386        17.3835208156773                 8.65685      -0.032856400854617     -0.0237381302249205      0.0937758482687388
2        18.8274848400711        17.3892262416344                 8.65685      0.0328963060755687     -0.0242951134208359      0.0973581195558769
3         17.402344993917         17.387795112765                 8.65685     -0.0291814639038381     -0.0298929542817534       0.122985428809651
4         14.571072038949        17.3849519429358                 8.65685      0.0283698173991448      -0.030558079654648       0.125419204839008
5        16.7010751677692        16.1497248501637                 8.65685    -0.00468798265013818    -0.00264271353132076    0.000878029032501253
6        15.2748269908674        16.1482926087119                 8.65685     0.00482517464851716    -0.00272805352531925     0.00122700446427326
7        15.2723418650276        18.6230222053877                 8.65685      0.0270120798065322      0.0137413323141727      0.0479818319029001
8        16.6985900414216        18.6244544465825                 8.65685     -0.0261779244404044      0.0131496318594689      0.0452410872589548
9        14.5177569207574        14.9484462411751                 8.65685      0.0192229959719454      0.0351082722644825      0.0899152347850043
10        17.4605534827313        14.9514014038861                 8.65685     -0.0196729475872786      0.0345888545763524      0.0880596085591067
11        14.5128635507729         19.821345651893                 8.65685     0.00545385527900935     0.00795864428448036      0.0166249333399495
12        17.4556601106552        19.8243008141789                 8.65685    -0.00563884500031256     0.00766633255013731      0.0159621386452763
13        13.1273112602358        14.9624445878976                 8.65685      -0.023315602778039      0.0256624276365365      0.0610033591112143
14        13.1224488081137        19.8045547622743                 8.65685    -0.00661567680832023     0.00629904340842116     0.00945329974203628
15         18.850968226168        14.9681922935721                 8.65685      0.0231240840223417      0.0262442788470107       0.062241567286229
16        18.8461057714963        19.8103024705805                 8.65685     0.00659207649847529     0.00633324648506867      0.0100142383014863
17         12.426795838139        18.5943199436399                 8.65685     -0.0175030650865924     0.00826961877773117      0.0257024097687294
18        12.4292290587396        16.1712798150634                 8.65685    -0.00297316000667672    -0.00182066459129957    -0.00222660320532398
19        19.5466211966922        16.1784271122721                 8.65685     0.00316850568144423    -0.00198684202558946     -0.0019557653170173
20        19.5441879750283        18.6014672429596                 8.65685      0.0185018671449629     0.00871609519970918      0.0272821805507365
21        20.9551350226241        16.2244350858224                 8.65685    -0.00644919057831377    -0.00585697429057006     0.00645291785298459
22        20.9527913622507        18.5582882295758                 8.65685     -0.0331891257538434      0.0178309961609269      0.0753614273506444
23        11.0206256731611        16.2144588294926                 8.65685     0.00645572605148014    -0.00578684049039629     0.00676783971396945
24        11.0182820131454        18.5483119722736                 8.65685      0.0337889860303506      0.0183040347933545       0.079400135270445
25        21.5867264607395        17.3919970781177                 8.65685    -0.00936815128661328     -0.0138197700782034      0.0510217553711448
26        10.3866905744716        17.3807499786644                 8.65685     0.00880552697700994     -0.0141462182297152      0.0513383018997035
27         21.609196045824        19.5859221409264                 8.65685     -0.0023035225960192     0.00781563835726481     0.00384474956939544
28        21.6136022867001        15.1981215696947                 8.65685    -0.00442252244786708      0.0136896550581459      0.0192478994401699
29        10.3598147507275        19.5746254872963                 8.65685     0.00219835557509156     0.00813831937832009     0.00442740945721105
30        10.3642209902605        15.1868249167297                 8.65685     0.00428853728342362      0.0139649400886192      0.0201738935667772
31        12.5998668222426        14.0154548000933                 8.65685    -0.00313189683061736    3.05875550810243e-05    -0.00436133631282435
32        12.5931035005993        20.7504833212092                 8.65685   -0.000829307199877833   -0.000673481216753855    -0.00878349994476026
33        19.3803135329519        14.0222637346313                 8.65685     0.00322279684407325    4.61107418079562e-05    -0.00410320731796646
34        19.3735502071424         20.757292260389                 8.65685    0.000890790412801482   -0.000752213280149864    -0.00861804040705792
35        14.9622865728669        13.9689605638796                 8.65685     0.00456521770380984   -0.000139962510493078     0.00280906719051739
36         14.955425108682        20.8017221461408                 8.65685     0.00147590585692704    -0.00196197263825871    -0.00596487093953021
37        17.0179919240215        13.9710249097393                 8.65685     -0.0045371071930395   -0.000126896867174869     0.00243873455912776
38         17.011130457531        20.8037864905846                 8.65685    -0.00146095041960571     -0.0018620627368271    -0.00617411695075939
39                       0                       0                5.656854                       0                       0                       0
40                       0                       0                2.828427                       0                       0                       0
41                       0                       0                       0                       0                       0                       0
42                       2                       2                5.656854                       0                       0                       0
43                       2                       2                2.828427                       0                       0                       0
44                       2                       2                       0                       0                       0                       0
45                       4                       0                5.656854    2.44824875510827e-10   -4.23048582020749e-10    1.04974298140117e-10
46                       4                       0                2.828427                       0                       0                       0
47                       4                       0                       0                       0                       0                       0
48                       6                       2                5.656854    1.42872181975515e-09    3.42617338792159e-09    8.09401532806905e-10
49                       6                       2                2.828427    3.37735075404741e-11    6.14867033264293e-11    2.98257970109591e-11
50                       6                       2                       0                       0                       0                       0
51                       8                       0                5.656854    3.15670637092611e-09   -8.81323320653723e-09    2.19330126742378e-09
52                       8                       0                2.828427    3.96462471650263e-09    -1.1120486080028e-08    5.39003956642118e-09
53                       8                       0                       0    2.26679243681994e-11   -5.55187126134552e-11      4.272336145729e-11
54                      10                       2                5.656854    1.02192974526265e-08    3.48017303393264e-08    1.06500942206339e-08
55                      10                       2                2.828427    3.61511287263251e-10    1.39042560739154e-09    7.27935715440652e-10
56                      10                       2                       0                       0                       0                       0
57                      12                       0                5.656854    5.80756295865226e-09   -3.85879932372447e-08    9.89678950722732e-09
58                      12                       0                2.828427    6.67500483548737e-09   -4.67583164241371e-08    2.29567202621863e-08
59                      12                       0                       0     5.4558773310653e-11    -4.5297983045259e-10    3.38858446317888e-10
60                      14                       2                5.656854    6.85424351992918e-09    8.42958150533688e-08      2.674917390949e-08
61                      14                       2                2.828427    2.05935871060589e-10    3.21158629717141e-09    1.81380717397892e-09
62                      14                       2                       0   -9.65841371072385e-12    7.62187091586346e-10    5.50262704888413e-10
63                      16                       0                5.656854    7.39664268170513e-12   -5.77103982239558e-08    1.49387444910496e-08
64                      16                       0                2.828427   -9.69316323311805e-13    -6.7939536059448e-08    3.36660913570488e-08
65                      16                       0                       0   -1.21352474662295e-13   -5.32313817381121e-10    4.10921014977861e-10
66                      18                       2                5.656854   -7.01279125003983e-09    8.37496813237701e-08    2.66174111347134e-08
67                      18                       2                2.828427   -2.11787279878497e-10    3.19302453750074e-09    1.80518478066453e-09
68                      18                       2                       0    8.31882346099074e-12    7.58541696747584e-10    5.47435118037075e-10
69                      20                       0                5.656854   -5.81913817084041e-09   -3.86914346779917e-08    9.91773553951859e-09
70                      20                       0                2.828427   -6.71608429361459e-09   -4.67559062625416e-08    2.29591529396907e-08
71                      20                       0                       0   -5.57050443787057e-11   -4.53505425394757e-10    3.39380536931925e-10
72                      22                       2                5.656854   -1.01496246118043e-08    3.41672129493232e-08    1.04956536206925e-08
73                      22                       2                2.828427   -3.59123102951996e-10    1.36860251212248e-09    7.17495125622455e-10
74                      22                       2                       0                       0                       0                       0
75                      24                       0                5.656854   -3.15068524566896e-09   -8.76139466271032e-09    2.18091651635977e-09
76                      24                       0                2.828427   -3.44740228556487e-09   -1.01059906995961e-08    4.90551502298469e-09
77                      24                       0                       0   -2.26482704192565e-11   -5.50374253546376e-11    4.23786463827244e-11
78                      26                       2                5.656854   -1.39841947944117e-09    3.34121950166537e-09    7.88805982138619e-10
79                      26                       2                2.828427   -3.31252286798637e-11    6.01599845312431e-11    2.91657083275835e-11
80                      26                       2                       0                       0                       0                       0
81                      28                       0                5.656854   -2.42987551308703e-10   -4.18218313161805e-10    1.03827992459242e-10
82                      28                       0                2.828427                       0                       0                       0
83                      28                       0                       0                       0                       0                       0
84                      30                       2                5.656854                       0                       0                       0
85                      30                       2                2.828427                       0                       0                       0
86                      30                       2                       0                       0                       0                       0
87                       0                       4                5.656854                       0                       0                       0
88                       0                       4                2.828427                       0                       0                       0
89                       0                       4                       0                       0                       0                       0
90                       2                       6                5.656854    2.19594413359192e-08    2.30986971369346e-08    7.39150342541468e-09
91                       2                       6                2.828427    7.64111859617257e-10      8.109334221676e-10    5.09489030399319e-10
92                       2                       6                       0                       0                       0                       0
93                       4                       4                5.656854    1.71029812217644e-09    2.64469047137059e-09    7.14709029538245e-10
94                       4                       4                2.828427    1.65720771677234e-09    2.60577542098485e-09    1.39438381299862e-09
95                       4                       4                       0                       0                       0                       0
96                       6                       6                5.656854    5.65483059096274e-07    9.46025928050583e-07    3.08960393109148e-07
97                       6                       6                2.828427    1.85441064631542e-08    3.07066019963276e-08     1.9420082826841e-08
98                       6                       6                       0     8.2085689285295e-09    1.37906857965306e-08    1.29336504674561e-08
99                       8                       4                5.656854    1.84639933253628e-08    4.76384871466924e-08    1.31033962804605e-08
100                       8                       4                2.828427    2.14853854263131e-08    5.57365646254092e-08    2.97348747513723e-08
101                       8                       4                       0    2.67139644781769e-10    6.89505637375221e-10    5.59579570641005e-10
102                      10                       6                5.656854    3.13459313189895e-06    1.03445008806406e-05     3.5184827492658e-06
103                      10                       6                2.828427    8.35352217191904e-08    2.72068632329311e-07    1.77926988042669e-07
104                      10                       6                       0    3.14951688412155e-08    1.01607225579474e-07    9.79809195646146e-08
105                      12                       4                5.656854    3.46913906759132e-08    2.22916657082279e-07    6.27331727780724e-08
106                      12                       4                2.828427    3.78358803632227e-08    2.38439307222822e-07    1.29660716354894e-07
107                      12                       4                       0    4.95089862890296e-10    3.18121548164936e-09    2.59199274936102e-09
108                      14                       6                5.656854    1.85117732943452e-06    2.78162048243998e-05    9.69420423133105e-06
109                      14                       6                2.828427    4.86485370906408e-08    6.68998180904575e-07     4.4755573256959e-07
110                      14                       6                       0    1.79055538084012e-08    2.30902696714016e-07    2.26836051792665e-07
111                      16                       4                5.656854   -3.32663082046554e-10    3.32807925329241e-07    9.43923919615112e-08
112                      16                       4                2.828427   -3.50493541824424e-10    3.50780066020279e-07    1.92088165949438e-07
113                      16                       4                       0   -4.77851764898608e-12    4.79318835490683e-09     3.9174450074552e-09
114                      18                       6                5.656854   -1.90029131120709e-06    2.76507168550383e-05    9.63326129501557e-06
115                      18                       6                2.828427   -4.98425627008985e-08    6.65507011954555e-07    4.45080980228466e-07
116                      18                       6                       0   -1.83280735377877e-08    2.29874579833305e-07    2.25759928329546e-07
117                      20                       4                5.656854   -3.47329037097012e-08    2.20368529835346e-07    6.19892416513081e-08
118                      20                       4                2.828427    -3.7910948952416e-08    2.35963701628208e-07    1.28261370387411e-07
119                      20                       4                       0   -4.96757436713182e-10    3.15223168793875e-09    2.56728190368422e-09
120                      22                       6                5.656854   -3.10040218198455e-06    1.01578916736713e-05    3.45239944526416e-06
121                      22                       6                2.828427   -8.27911170048036e-08    2.67729905182695e-07    1.74965340656199e-07
122                      22                       6                       0   -3.12829629721708e-08     1.0021539623742e-07    9.65730026251421e-08
123                      24                       4                5.656854   -1.81513603246476e-08    4.66031729905658e-08    1.28103870670525e-08
124                      24                       4                2.828427   -2.11583973716314e-08    5.46215765326826e-08    2.91215008945141e-08
125                      24                       4                       0   -2.63656332692627e-10    6.77321861689174e-10    5.49314377424729e-10
126                      26                       6                5.656854   -5.51662592415928e-07    9.19710775069999e-07    3.00095810129831e-07
127                      26                       6                2.828427   -1.81378847863333e-08     2.9932453542996e-08    1.89139944457604e-08
128                      26                       6                       0   -8.05326163447024e-09     1.3484608439887e-08    1.26354297135376e-08
129                      28                       4                5.656854   -1.66409144121162e-09    2.56673046013336e-09    6.93092063867854e-10
130                      28                       4                2.828427   -1.61555226160264e-09    2.53397197961109e-09    1.35480088214637e-09
131                      28                       4                       0                       0                       0                       0
132                      30                       6                5.656854   -2.12584433024226e-08    2.23232962467483e-08    7.13632795326492e-09
133                      30                       6                2.828427   -7.41395608391865e-10    7.85567808235066e-10    4.93032913015543e-10
134                      30                       6                       0                       0                       0                       0
135                       0                       8                5.656854    1.10063811077043e-10    4.34390720093889e-09    1.73230348818216e-09
136                       0                       8                2.828427    1.19972507123116e-10    5.07510664963506e-09    3.96938698374307e-09
137                       0                       8                       0                       0                       0                       0
138                       2                      10                5.656854    1.13549079113823e-06    7.39732455485086e-07    3.92124174673216e-07
139                       2                      10                2.828427    3.56125747212806e-08    2.32682841758413e-08    2.36814109002992e-08
140                       2                      10                       0     1.5321109747299e-08    9.74320402752363e-09    1.49565575238134e-08
141                       4                       8                5.656854    2.36476402184115e-07    2.51456672256726e-07     1.0158262562431e-07
142                       4                       8                2.828427     2.3070502544255e-07    2.44032358702106e-07    1.90213972970899e-07
143                       4                       8                       0    2.98257718895537e-09    3.14452962998602e-09    3.64967976973882e-09
144                       6                      10                5.656854    6.82944240454929e-05    7.44853296925217e-05    4.11137049164614e-05
145                       6                      10                2.828427     1.2481934393877e-06    1.33832992861762e-06    1.41092084585391e-06
146                       6                      10                       0    3.37531013770532e-07    3.56423836817037e-07    5.46853892580429e-07
147                       8                       8                5.656854    4.06113412010654e-06    7.81990800791513e-06    3.29464811026542e-06
148                       8                       8                2.828427    2.79354125424123e-06     5.2582828879653e-06    4.25165727932298e-06
149                       8                       8                       0    2.70468071893865e-08     4.9736960047863e-08    5.88902935598854e-08
150                      10                      10                5.656854    0.000617747238662305     0.00146521929729298    0.000876520348377986
151                      10                      10                2.828427    7.17163604053885e-06    1.64483509044205e-05    1.84738361575773e-05
152                      10                      10                       0    1.33769976647977e-06     2.9377699585818e-06    4.73322664732689e-06
153                      12                       8                5.656854    9.77927978301571e-06    5.06754538298744e-05    2.26625104135094e-05
154                      12                       8                2.828427    5.33736508638728e-06    2.64168017504275e-05    2.24266948637717e-05
155                      12                       8                       0    4.27052277438024e-08    2.00239379357284e-07    2.46243799694441e-07
156                      14                      10                5.656854    0.000276106475474735     0.00442019258975419     0.00283218610569359
157                      14                      10                2.828427    3.31796034735565e-06    4.11907531181386e-05    4.89722655181203e-05
158                      14                      10                       0    6.43687617438436e-07    6.42071291650476e-06    1.08118626181324e-05
159                      16                       8                5.656854   -8.30863873470276e-08    7.55827853940615e-05    3.43809918129149e-05
160                      16                       8                2.828427   -4.31408104276827e-08    3.82490628242945e-05    3.30101410282443e-05
161                      16                       8                       0   -3.26772004417945e-10    2.81825124135068e-07    3.51759254960578e-07
162                      18                      10                5.656854    -0.00028662379771237     0.00439709050195549     0.00281524254989746
163                      18                      10                2.828427   -3.41572701289823e-06    4.10150479804417e-05    4.87312618790675e-05
164                      18                      10                       0   -6.58994179922768e-07    6.39822314252585e-06    1.07680218677622e-05
165                      20                       8                5.656854   -9.78345852018487e-06    5.00320387217297e-05    2.23556064058229e-05
166                      20                       8                2.828427    -5.3474958464341e-06    2.61385436971503e-05    2.21733616187136e-05
167                      20                       8                       0   -4.28349020771569e-08    1.98499774900548e-07    2.43936815499951e-07
168                      22                      10                5.656854   -0.000609828388063766     0.00143634239952088    0.000857807065716205
169                      22                      10                2.828427   -7.10753082046901e-06    1.61895774893382e-05    1.81571801844373e-05
170                      22                      10                       0   -1.32960852034602e-06     2.9007574099967e-06    4.66788681477428e-06
171                      24                       8                5.656854   -3.97849264888278e-06    7.62373772292786e-06    3.20821103282091e-06
172                      24                       8                2.828427   -2.74614332760779e-06    5.14497702833755e-06    4.15551770850075e-06
173                      24                       8                       0   -2.66765608327805e-08    4.88349310229615e-08    5.77645814053834e-08
174                      26                      10                5.656854    -6.6329857408146e-05    7.21263200182688e-05    3.97430968276267e-05
175                      26                      10                2.828427   -1.21849068441921e-06    1.30267647658656e-06    1.37121180623418e-06
176                      26                      10                       0   -3.31013504060111e-07    3.48539357539846e-07    5.34021507374879e-07
177                      28                       8                5.656854   -2.29173509381654e-07    2.43150659050924e-07    9.81065602844896e-08
178                      28                       8                2.828427   -2.24347324554216e-07    2.36783483731572e-07    1.84349401934339e-07
179                      28                       8                       0   -2.91167131469566e-09    3.06329225812337e-09    3.55119029390291e-09
180                      30                      10                5.656854   -1.09537294510772e-06    7.13283001159936e-07    3.77515411001051e-07
181                      30                      10                2.828427   -3.44806574742851e-08    2.25131765807975e-08     2.2880445448487e-08
182                      30                      10                       0   -1.49036973664748e-08    9.46755889516598e-09    1.45107025079348e-08
183                       0                      12                5.656854    2.25423407341863e-09    4.51030728016891e-08    3.38339871289757e-08
184                       0                      12                2.828427    2.33634181707054e-09    5.15367129742909e-08    7.43065299057474e-08
185                       0                      12                       0    2.73181000762336e-11    6.71864632854697e-10    1.49745240222639e-09
186                       2                      14                5.656854    1.27834907016433e-05    3.30891849623368e-06    4.43130570795853e-06
187                       2                      14                2.828427    3.18911704864482e-07    8.60254782681834e-08     2.1378499286526e-07
188                       2                      14                       0    1.14198784610008e-07    3.16118146790482e-08    1.11839419449044e-07
189                       4                      12                5.656854      9.912081939715e-06    5.49177074818324e-06    4.40956059540989e-06
190                       4                      12                2.828427    6.15933654219159e-06    3.46367299625515e-06    5.22797279273406e-06
191                       4                      12                       0     5.4645782377835e-08     3.1133162657163e-08    6.74022027941462e-08
192                       6                      14                5.656854     0.00187517146210881    0.000763083743555724     0.00118350689887987
193                       6                      14                2.828427    1.88260088059935e-05    8.12374452483552e-06    2.22293680793445e-05
194                       6                      14                       0    3.10190273310351e-06    1.39213445550884e-06     5.2011415090445e-06
195                       8                      12                5.656854    0.000417332840675673     0.00047830101699783    0.000412932164877174
196                       8                      12                2.828427    0.000118183896349494    0.000129331965366455    0.000207255415085491
197                       8                      12                       0    5.69368154862787e-07    6.00852740325106e-07     1.3643510694723e-06
198                      10                      14                5.656854     0.00885524842917346    -0.00250842355271122     -0.0156169015690124
199                      10                      14                2.828427    0.000116774394972643    0.000127819620289094    0.000387508625693643
200                      10                      14                       0     1.2018757357088e-05    1.23160731715752e-05    4.97757675376029e-05
201                      12                      12                5.656854     0.00105312164701298     0.00356397556823507     0.00356900990419705