ITEM: TIMESTEP
0
ITEM: NUMBER OF ATOMS
422
ITEM: BOX BOUNDS pp pp pp
0.0000000000000000e+00 3.2000000000000000e+01
0.0000000000000000e+00 3.2000000000000000e+01
0.0000000000000000e+00 3.2000000000000000e+01
ITEM: ATOMS id xu yu zu fx fy fz
1        13.1110525694498        15.9486411912885        8.62197037561121        5.32177280146917        4.98050178306461        1.21622160812278
2        18.8570996330046        16.0188410345679        8.68646479293349       -3.16576804835164        -3.1283037740932      -0.735755115847767
3        17.3765879712712        15.9620380901192        8.63109297735423        5.88289156975308        5.63164919807689        1.47591462790532
4        14.6171724543349        16.0310523583217         8.7029504153859       -6.90972852445669       -6.86459059946738       -1.77629650919306
5        16.7176885505929        14.7663382329874         8.6734633828237       -5.35989399914439       -5.22543828068446       -1.34674831234249
6        15.2318553495571        14.7053209674016        8.61387835868973        6.43762071379994        7.10671378230028        1.67302662865206
7        15.2817133837563        17.2323937241165        8.66622151872879        2.38375466043163        2.13537165666285        0.61924300140402
8        16.7485509798239        17.2744153849848        8.70681093840231       -5.65630979736786       -5.80435484435913        -1.2048235863937
9        14.5256740570926        13.5563633775104        8.66476713633525       -4.11158031598669       -3.02171210281387      -0.656028651465059
10        17.4242081069135        13.5150560280682        8.62050462418212        4.50229681894072        4.47956775142302       0.770660704270113
11         14.501373052752        18.4098551538721        8.64535950197911         2.1261918199858        1.32025388293121       0.243689627494478
12        17.4502186195023         18.418859323026        8.65140850884706        1.15965546224935       0.993485988879169      0.0561937986776497
13        13.0793780479817        13.5145113756436        8.60891678774597        5.44740090572404        5.17840004193361       0.909175116255213
14        13.1641855137686        18.4462914679292        8.69858670565491       -3.94219185772022       -4.48630651558207      -0.740257170764341
15        18.8589052167094        13.5761292841134        8.66478699054131       -1.73801118201957      -0.657912024168879      -0.232038615213411
16        18.8225040765402        18.3867007756244        8.63324830504398        1.92470559973739        2.29282962030416       0.313854905503427
17        12.4201841246773        17.1877082301783        8.65023828653833        2.21119234330838        2.35602754675901        0.44197346751146
18        12.4352536825919        14.7773044389158        8.66287462385236       -4.98715391026533       -5.31015568357982       -1.45857060423677
19        19.5559784910334        14.7877844066133         8.6662072943412      -0.589418798500819      -0.285085302772441       0.171784901177114
20        19.5623593110406        17.2196385789719        8.67502133601232       -1.60302892392108       -1.20354386491978      -0.111471401951378
21         20.941179163373        14.8104792265713        8.64289414074895      -0.603637651082618      -0.547327608614578      0.0357834817780623
22        20.9420116420076        17.1475085093326        8.64607027975685      -0.199446030538687      -0.247442149351575       -0.12737025170182
23        10.9726943607515         14.766527517083         8.6089186875904        7.90266832939944        9.28605770553454        1.22520799671118
24        11.0519978960749        17.1820278552031         8.6905658829295       -3.07635489207458       -3.95647585424934      -0.752453370179752
25        21.5376052404074        15.9428758577856        8.60772877966786        2.66537884424477        3.39595628148411       0.275776733784041
26        10.3992821067079        15.9933415109007        8.66944153223628       -1.06260864114297      -0.956680613194446       -0.27126067754724
27         21.597508704223        18.1742347993253        8.64516265839896       0.721837029190516      -0.363330217688133     -0.0753993092392931
28        21.6193829799832        13.8039022629777        8.66263069328302      -0.255730712855912      -0.659276041096985     -0.0919676827596149
29        10.3597360616213        18.1745467981901        8.65677131089378       0.863126967996504          1.339640907572       0.286588704098671
30        10.3814575284343        13.8040614549036        8.67408653817385       -4.16333367437974       -4.76001689212762     -0.0292406613186974
31        12.6186924910564         12.634280468907        8.67567566881373       -1.56662025612628       -2.28555502516915     -0.0603031537630609
32        12.5761950882872        19.3335749088972        8.63994158768793       0.519791228634944        1.03505412236542       0.217387131487869
33         19.407598613329        12.6495488150085        8.68413508037715     -0.0268096229836859      -0.278646896954195     -0.0338099283881841
34        19.3627577676948        19.3464998209414        8.64605756055242      -0.426004848978675      -0.385521813328793      -0.161506957253035
35        14.9870974944333         12.593771485446        8.68166092156642     0.00971418493668175      -0.219353855546327      0.0537002829943184
36        14.9370122928042        19.3833093302631        8.63843718412224       0.138181962718141         0.2196649411968     -0.0652912698464873
37        17.0306502988473        12.5836832845651        8.66950837482578       -1.04780563540411       -1.69490688884083      -0.104075501188515
38         16.972543265711        19.3651992987646           8.61826280818       0.273256080781063       0.590761638115339      0.0484860127659221
39                       0                       0                5.656854                       0                       0                       0
40                       0                       0                2.828427                       0                       0                       0
41                       0                       0                       0                       0                       0                       0
42                       2                       2                5.656854                       0                       0                       0
43                       2                       2                2.828427                       0                       0                       0
44                       2                       2                       0                       0                       0                       0
45                       4                       0                5.656854                       0                       0                       0
46                       4                       0                2.828427                       0                       0                       0
47                       4                       0                       0                       0                       0                       0
48                       6                       2                5.656854                       0                       0                       0
49                       6                       2                2.828427                       0                       0                       0
50                       6                       2                       0                       0                       0                       0
51                       8                       0                5.656854                       0                       0                       0
52                       8                       0                2.828427                       0                       0                       0
53                       8                       0                       0                       0                       0                       0
54                      10                       2                5.656854                       0                       0                       0
55                      10                       2                2.828427                       0                       0                       0
56                      10                       2                       0                       0                       0                       0
57                      12                       0                5.656854                       0                       0                       0
58                      12                       0                2.828427                       0                       0                       0
59                      12                       0                       0                       0                       0                       0
60                      14                       2                5.656854                       0                       0                       0
61                      14                       2                2.828427                       0                       0                       0
62                      14                       2                       0                       0                       0                       0
63                      16                       0                5.656854                       0                       0                       0
64                      16                       0                2.828427                       0                       0                       0
65                      16                       0                       0                       0                       0                       0
66                      18                       2                5.656854                       0                       0                       0
67                      18                       2                2.828427                       0                       0                       0
68                      18                       2                       0                       0                       0                       0
69                      20                       0                5.656854                       0                       0                       0
70                      20                       0                2.828427                       0                       0                       0
71                      20                       0                       0                       0                       0                       0
72                      22                       2                5.656854                       0                       0                       0
73                      22                       2                2.828427                       0                       0                       0
74                      22                       2                       0                       0                       0                       0
75                      24                       0                5.656854                       0                       0                       0
76                      24                       0                2.828427                       0                       0                       0
77                      24                       0                       0                       0                       0                       0
78                      26                       2                5.656854                       0                       0                       0
79                      26                       2                2.828427                       0                       0                       0
80                      26                       2                       0                       0                       0                       0
81                      28                       0                5.656854                       0                       0                       0
82                      28                       0                2.828427                       0                       0                       0
83                      28                       0                       0                       0                       0                       0
84                      30                       2                5.656854                       0                       0                       0
85                      30                       2                2.828427                       0                       0                       0
86                      30                       2                       0                       0                       0                       0
87                       0                       4                5.656854                       0                       0                       0
88                       0                       4                2.828427                       0                       0                       0
89                       0                       4                       0                       0                       0                       0
90                       2                       6                5.656854                       0                       0                       0
91                       2                       6                2.828427                       0                       0                       0
92                       2                       6                       0                       0                       0                       0
93                       4                       4                5.656854                       0                       0                       0
94                       4                       4                2.828427                       0                       0                       0
95                       4                       4                       0                       0                       0                       0
96                       6                       6                5.656854                       0                       0                       0
97                       6                       6                2.828427                       0                       0                       0
98                       6                       6                       0                       0                       0                       0
99                       8                       4                5.656854                       0                       0                       0
100                       8                       4                2.828427                       0                       0                       0
101                       8                       4                       0                       0                       0                       0
102                      10                       6                5.656854                       0                       0                       0
103                      10                       6                2.828427                       0                       0                       0
104                      10                       6                       0                       0                       0                       0
105                      12                       4                5.656854                       0                       0                       0
106                      12                       4                2.828427                       0                       0                       0
107                      12                       4                       0                       0                       0                       0
108                      14                       6                5.656854                       0                       0                       0
109                      14                       6                2.828427                       0                       0                       0
110                      14                       6                       0                       0                       0                       0
111                      16                       4                5.656854                       0                       0                       0
112                      16                       4                2.828427                       0                       0                       0
113                      16                       4                       0                       0                       0                       0
114                      18                       6                5.656854                       0                       0                       0
115                      18                       6                2.828427                       0                       0                       0
116                      18                       6                       0                       0                       0                       0
117                      20                       4                5.656854                       0                       0                       0
118                      20                       4                2.828427                       0                       0                       0
119                      20                       4                       0                       0                       0                       0
120                      22                       6                5.656854                       0                       0                       0
121                      22                       6                2.828427                       0                       0                       0
122                      22                       6                       0                       0                       0                       0
123                      24                       4                5.656854                       0                       0                       0
124                      24                       4                2.828427                       0                       0                       0
125                      24                       4                       0                       0                       0                       0
126                      26                       6                5.656854                       0                       0                       0
127                      26                       6                2.828427                       0                       0                       0
128                      26                       6                       0                       0                       0                       0
129                      28                       4                5.656854                       0                       0                       0
130                      28                       4                2.828427                       0                       0                       0
131                      28                       4                       0                       0                       0                       0
132                      30                       6                5.656854                       0                       0                       0
133                      30                       6                2.828427                       0                       0                       0
134                      30                       6                       0                       0                       0                       0
135                       0                       8                5.656854                       0                       0                       0
136                       0                       8                2.828427                       0                       0                       0
137                       0                       8                       0                       0                       0                       0
138                       2                      10                5.656854                       0                       0                       0
139                       2                      10                2.828427                       0                       0                       0
140                       2                      10                       0                       0                       0                       0
141                       4                       8                5.656854                       0                       0                       0
142                       4                       8                2.828427                       0                       0                       0
143                       4                       8                       0                       0                       0                       0
144                       6                      10                5.656854                       0                       0                       0
145                       6                      10                2.828427                       0                       0                       0
146                       6                      10                       0                       0                       0                       0
147                       8                       8                5.656854                       0                       0                       0
148                       8                       8                2.828427                       0                       0                       0
149                       8                       8                       0                       0                       0                       0
150                      10                      10                5.656854                       0                       0                       0
151                      10                      10                2.828427                       0                       0                       0
152                      10                      10                       0                       0                       0                       0
153                      12                       8                5.656854                       0                       0                       0
154                      12                       8                2.828427                       0                       0                       0
155                      12                       8                       0                       0                       0                       0
156                      14                      10                5.656854                       0                       0                       0
157                      14                      10                2.828427                       0                       0                       0
158                      14                      10                       0                       0                       0                       0
159                      16                       8                5.656854                       0                       0                       0
160                      16                       8                2.828427                       0                       0                       0
161                      16                       8                       0                       0                       0                       0
162                      18                      10                5.656854                       0                       0                       0
163                      18                      10                2.828427                       0                       0                       0
164                      18                      10                       0                       0                       0                       0
165                      20                       8                5.656854                       0                       0                       0
166                      20                       8                2.828427                       0                       0                       0
167                      20                       8                       0                       0                       0                       0
168                      22                      10                5.656854                       0                       0                       0
169                      22                      10                2.828427                       0                       0                       0
170                      22                      10                       0                       0                       0                       0
171                      24                       8                5.656854                       0                       0                       0
172                      24                       8                2.828427                       0                       0                       0
173                      24                       8                       0                       0                       0                       0
174                      26                      10                5.656854                       0                       0                       0
175                      26                      10                2.828427                       0                       0                       0
176                      26                      10                       0                       0                       0                       0
177                      28                       8                5.656854                       0                       0                       0
178                      28                       8                2.828427                       0                       0                       0
179                      28                       8                       0                       0                       0                       0
180                      30                      10                5.656854                       0                       0                       0
181                      30                      10                2.828427                       0                       0                       0
182                      30                      10                       0                       0                       0                       0
183                       0                      12                5.656854                       0                       0                       0
184                       0                      12                2.828427                       0                       0                       0
185                       0                      12                       0                       0                       0                       0
186                       2                      14                5.656854                       0                       0                       0
187                       2                      14                2.828427                       0                       0                       0
188                       2                      14                       0                       0                       0                       0
189                       4                      12                5.656854                       0                       0                       0
190                       4                      12                2.828427                       0                       0                       0
191                       4                      12                       0                       0                       0                       0
192                       6                      14                5.656854                       0                       0                       0
193                       6                      14                2.828427                       0                       0                       0
194                       6                      14                       0                       0                       0                       0
195                       8                      12                5.656854                       0                       0                       0
196                       8                      12                2.828427                       0                       0                       0
197                       8                      12                       0                       0                       0                       0
198                      10                      14                5.656854                       0                       0                       0
199                      10                      14                2.828427                       0                       0                       0
200                      10                      14                       0                       0                       0                       0
201                      12                      12                5.656854                       0                       0                       0