ITEM: TIMESTEP
0
ITEM: NUMBER OF ATOMS
422
ITEM: BOX BOUNDS ff ff ff
0.0000000000000000e+00 2.3200000000000000e+02
0.0000000000000000e+00 2.3200000000000000e+02
0.0000000000000000e+00 2.3200000000000000e+02
ITEM: ATOMS id xu yu zu fx fy fz
1        113.145932193839        117.983520815677              108.656854      -0.039891824989814    -0.00222948554248634       0.124520797205564
2        118.827484840071        117.989226241634              108.656854      0.0370372684481247    -0.00187642172610092       0.128845827856982
3        117.402344993917        117.987795112765              108.656854     -0.0322532075129318     0.00222302934189392       0.155971412381895
4        114.571072038949        117.984951942936              108.656854       0.037135700555422     0.00213505682172083        0.15972356812042
5        116.701075167769        116.749724850164              108.656854    -0.00630066531017624    -0.00441506171220534      0.0179577968604915
6        115.274826990867        116.748292608712              108.656854      0.0142007099755531    -0.00484138426066602      0.0190320468357647
7        115.272341865028        119.223022205388              108.656854      0.0147333971756604      0.0131752603462131      0.0198177884554195
8        116.698590041422        119.224454446583              108.656854     -0.0069187555470477      0.0124779213178507      0.0183978146018035
9        114.517756920757        115.548446241175              108.656854      0.0085744724400002      0.0174452956040766      0.0289116951810907
10        117.460553482731        115.551401403886              108.656854     -0.0271951434530299      0.0171369731079364      0.0289815220952954
11        114.512863550773        120.421345651893              108.656854     0.00844752160081945     -0.0353132705171277      0.0288970609533593
12        117.455660110655        120.424300814179              108.656854     -0.0262528753908445     -0.0345857482318612      0.0290133417465325
13        113.127311260236        115.562444587898              108.656854    -0.00145507406097949     0.00963224331972545      0.0140771531927063
14        113.122448808114        120.404554762274              108.656854   -0.000850611650780842     -0.0247551028392412      0.0138922735453528
15        118.850968226168        115.568192293572              108.656854     -0.0145461948084857     0.00990890993833051      0.0164282262659456
16        118.846105771496         120.41030247058              108.656854      -0.014119165026153     -0.0246383100263403      0.0170709181713784
17        112.426795838139         119.19431994364              108.656854    -0.00260551651755061      0.0124740760910144      0.0115777177442889
18         112.42922905874        116.771279815063              108.656854    -0.00215234111471675    -0.00239003914686015      0.0114507392024033
19        119.546621196692        116.778427112272              108.656854      0.0124365564197337     -0.0030350362306688      0.0108230254586125
20        119.544187975028         119.20146724296              108.656854      0.0124974870686349      0.0123335573958798      0.0108547202279127
21        120.955135022624        116.824435085822              108.656854       0.139089940260203       0.162126320834574      0.0285756850331246
22        120.952791362251        119.158288229576              108.656854       0.135471113689028      -0.062089075547075      0.0237822372653181
23        111.020625673161        116.814458829493              108.656854     -0.0222545072170109       0.165745446267229      0.0514314699430878
24        111.018282013145        119.148311972274              108.656854     -0.0207351600827805     -0.0533480998414414      0.0461066764892324
25        121.586726460739        117.991997078118              108.656854     -0.0665547916142873     -0.0269068947065453        0.12092050773258
26        110.386690574472        117.980749978664              108.656854    0.000744560292998168      -0.031429140575738       0.108271676605859
27        121.609196045824        120.185922140926              108.656854      -0.159817436716355     -0.0843382467146511      0.0255731589684117
28          121.6136022867        115.798121569695              108.656854      -0.167924756507553     -0.0357955668074148      0.0152911035767444
29        110.359814750727        120.174625487296              108.656854      0.0166956167753172     -0.0968433811186642    -0.00471293711638601
30         110.36422099026         115.78682491673              108.656854      0.0184665228298111      -0.038404822950009     -0.0163239939693623
31        112.599866822243        114.615454800093              108.656854     -0.0175111319370083     0.00185893808216451    -0.00338883949209998
32        112.593103500599        121.350483321209              108.656854      -0.017755205292645      0.0431998626936243    -0.00915152248332883
33        119.380313532952        114.622263734631              108.656854      0.0600631307313459     0.00166556116321432    -0.00917258336252749
34        119.373550207142        121.357292260389              108.656854      0.0568932198824798      0.0401235207594412     -0.0148084065822756
35        114.962286572867         114.56896056388              108.656854     0.00760439559427851     0.00195352118216332    -0.00670278428846294
36        114.955425108682        121.401722146141              108.656854     0.00674065924609062      0.0271219959826363       -0.01077945330985
37        117.017991924022        114.571024909739              108.656854      0.0192133437065251      0.0018321221362818    -0.00775033211145305
38        117.011130457531        121.403786490585              108.656854      0.0179519439167208      0.0266151573865197     -0.0117246383643628
39                     100                     100              105.656854       0.212125972125273       0.213561501098655      -0.975787194343158
40                     100                     100              102.828427       0.432020096929344       0.430747375741518   -0.000217700075354998
41                     100                     100                     100       0.212169356558902       0.213228276382567       0.976158529625052
42                     102                     102              105.656854      -0.344436900278187      -0.346790500046329      -0.277743320414481
43                     102                     102              102.828427     -0.0508776064893143     -0.0488678072807738    0.000367420036730251
44                     102                     102                     100      -0.344561123037742      -0.346149219488696       0.277138107105549
45                     104                     100              105.656854      0.0960736992158399       0.959532041071434      -0.809063648943395
46                     104                     100              102.828427     -0.0640261968093797       0.727079638614776   -0.000104987042094549
47                     104                     100                     100      0.0963717868006189       0.959218753153479       0.809222928154705
48                     106                     102              105.656854      -0.149847005078076      -0.513938277518281      -0.381209755113958
49                     106                     102              102.828427       0.142819297142963      0.0659300339219729     8.0797906580486e-05
50                     106                     102                     100      -0.150564593357695      -0.513452544961481       0.381118304226414
51                     108                     100              105.656854        0.11043524561095        1.05988670986739      -0.801913430067327
52                     108                     100              102.828427      -0.112226010430266         0.6399934367893    0.000243595977572672
53                     108                     100                     100       0.111065873846766        1.05998094794773        0.80146723410546
54                     110                     102              105.656854      -0.145009745599466      -0.582050974674316      -0.374011644690473
55                     110                     102              102.828427        0.14921405485241       0.134937361954158   -0.000703595422448951
56                     110                     102                     100      -0.146293125125432      -0.582695399594125       0.375234207718927
57                     112                     100              105.656854       0.132684098336389        1.10931584302628      -0.810373696888544
58                     112                     100              102.828427      -0.136193840571853       0.588848228681645    0.000745787369694894
59                     112                     100                     100       0.133296783799389        1.11020069995741       0.809081455625263
60                     114                     102              105.656854      -0.164989331844595      -0.621201586890371      -0.362266631918172
61                     114                     102              102.828427       0.169520305131246       0.176236280966363    -0.00154907185286639
62                     114                     102                     100      -0.165706384124015      -0.623360377161154       0.364873934861239
63                     116                     100              105.656854       0.166587266842066        1.14551951088165      -0.820735412041989
64                     116                     100              102.828427      -0.170770916028186       0.551213932811779      0.0010023856442475
65                     116                     100                     100       0.166586837479994        1.14685248677863       0.819016130717852
66                     118                     102              105.656854      -0.208304445845241      -0.653395416557273       -0.34883271426329
67                     118                     102              102.828427       0.213566369276319       0.209479585026233    -0.00154818205047018
68                     118                     102                     100      -0.207585818085739      -0.655551581301868       0.351438587797691
69                     120                     100              105.656854        0.22219536874921         1.1833960877987      -0.834942048901837
70                     120                     100              102.828427      -0.227894345086565       0.512342847270544    0.000745548483878691
71                     120                     100                     100       0.221583293724121         1.1842798030803        0.83365019126382
72                     122                     102              105.656854      -0.286848327599017      -0.688217313825392      -0.330482085192375
73                     122                     102              102.828427        0.29222292694723       0.244498846528876   -0.000703474417688945
74                     122                     102                     100      -0.285568268864651      -0.688860353728468       0.331704415349583
75                     124                     100              105.656854       0.325445089914221        1.23652900507326      -0.852111139559615
76                     124                     100              102.828427      -0.322290122481563       0.459610039024136     0.00024444158947199
77                     124                     100                     100       0.324816324412418          1.236624095439       0.851663561072913
78                     126                     102              105.656854      -0.460917470266288      -0.726738966193737      -0.331780359815834
79                     126                     102              102.828427       0.396596856054867       0.281106595282673    7.82054439322548e-05
80                     126                     102                     100      -0.460202698941249      -0.726257208583252       0.331693057722819
81                     128                     100              105.656854       0.707957644969194        1.34018010104929      -0.754862673488883
82                     128                     100              102.828427      -0.280645213515521       0.396460201104126   -0.000103044982997442
83                     128                     100                     100       0.707660396878041        1.33986944645333       0.755018721436481
84                     130                     102              105.656854       -1.34064845764175       -0.70796622824973      -0.755186220434971
85                     130                     102              102.828427      -0.395883842628575       0.280476481272522    0.000363912281491144
86                     130                     102                     100       -1.34052407048935       -0.70732975429388       0.754586781213478
87                     100                     104              105.656854       0.958626171018782      0.0993015485854561      -0.808714141465344
88                     100                     104              102.828427       0.727951769777058     -0.0667151539277206   -0.000643912319263046
89                     100                     104                     100       0.958424223730778      0.0984246130726554       0.809791258602032
90                     102                     106              105.656854      -0.512742950125502      -0.155606732012673      -0.382046801204472
91                     102                     106              102.828427      0.0647096837743303       0.147291790604855     0.00126190709486348
92                     102                     106                     100      -0.512320621378584      -0.153690288506625       0.380005158900028
93                     104                     104              105.656854       0.247141008478963       0.251266073059114      -0.389076499604322
94                     104                     104              102.828427      -0.180090760822654      -0.183414284818099   -0.000638768528678921
95                     104                     104                     100       0.247523996575382        0.24996100933072       0.390087404241602
96                     106                     106              105.656854       -0.23334156382686      -0.241200038179909       -0.50305565474748
97                     106                     106              102.828427       0.225800053402343       0.231553750957674     0.00110339191235436
98                     106                     106                     100      -0.234645684129312      -0.238422586037148       0.501361300030251
99                     108                     104              105.656854        0.17508751493359       0.336892437120983      -0.375690094064462
100                     108                     104              102.828427      -0.178543342626832      -0.267843914973763    0.000152238091879039
101                     108                     104                     100       0.176923037897352        0.33633679838457       0.375358470267184
102                     110                     106              105.656854       -0.18753814210239      -0.291005235534839       -0.48971548026017
103                     110                     106              102.828427       0.195232493756746       0.284723344279126    -0.00122850735749974
104                     110                     106                     100      -0.192343460560313      -0.291502259259592       0.491824427678033
105                     112                     104              105.656854       0.170346467437677       0.381299501787822      -0.389839339013552
106                     112                     104              102.828427      -0.176143913585424      -0.315429187607909     0.00191286744949854
107                     112                     104                     100       0.172747023614157        0.38380405688941        0.38664577879781
108                     114                     106              105.656854      -0.192767719917832      -0.315342753861223      -0.471650564189429
109                     114                     106              102.828427        0.19976874692074       0.314497857478407    -0.00480052540053259
110                     114                     106                     100      -0.196048308546416      -0.323096607328651       0.479551703995498
111                     116                     104              105.656854        0.19819127105915       0.410247106147183      -0.404127181840226
112                     116                     104              102.828427       -0.20339872919161      -0.346580987108168     0.00296952148006175
113                     116                     104                     100       0.198187256123988       0.414850537538319       0.399234715766554
114                     118                     106              105.656854      -0.236446213028839      -0.337556102892728      -0.455747173624799
115                     118                     106              102.828427       0.241050310228042       0.337399402535428    -0.00479318689614731
116                     118                     106                     100      -0.233151932801445      -0.345289504482508       0.463636106906863
117                     120                     104              105.656854       0.257069654029587       0.437958609338564      -0.420564175348068
118                     120                     104              102.828427      -0.262849842342001      -0.373930884853172     0.00190976153604508
119                     120                     104                     100       0.254671462453219        0.44045429302789       0.417375653856167
120                     122                     106              105.656854      -0.312718044685855      -0.360982046453651      -0.437940755892917
121                     122                     106              102.828427       0.316716600472533       0.356974802801112    -0.00122515033083202
122                     122                     106                     100      -0.307933248271382      -0.361469659664312       0.440044098844457
123                     124                     104              105.656854       0.366156851982601       0.462194408805541      -0.439011726503611
124                     124                     104              102.828427      -0.361129228649512      -0.397050537507064     0.00015447356812692
125                     124                     104                     100       0.364329740189942       0.461642392328404       0.438676681172522
126                     126                     106              105.656854      -0.465895912365793      -0.365500647146721      -0.439976629707852
127                     126                     106              102.828427        0.40054273554021       0.359789639294486     0.00109346084918711
128                     126                     106                     100      -0.464600557906888      -0.362742986112187       0.438297966464442
129                     128                     104              105.656854       0.728029715624239         0.4607636289561      -0.331219479246732
130                     128                     104              102.828427      -0.282507583302382      -0.396099755101349   -0.000632706333914747
131                     128                     104                     100       0.727648026149744       0.459468367823465       0.332220751780218
132                     130                     106              105.656854       -1.23764569316897      -0.326866495400923      -0.852886558815649
133                     130                     106              102.828427      -0.458256298048237       0.323029492352839     0.00125150909137322
134                     130                     106                     100       -1.23806349603441      -0.324965092412291       0.850861424108153
135                     100                     108              105.656854        1.06153521281856       0.115991458694312      -0.800585026345483
136                     100                     108              102.828427       0.639074184074508      -0.116545374862554    -0.00167162149587099
137                     100                     108                     100        1.06025957717474        0.11408043654202         0.8033215637662
138                     102                     110              105.656854       -0.58655413360992      -0.154846812740433      -0.377407733576031
139                     102                     110              102.828427       0.137148432825267        0.15606175258741     0.00359342370730651
140                     102                     110                     100      -0.583283828547507      -0.150507976669141       0.371653678878394
141                     104                     108              105.656854       0.335551183563628       0.186226365084613      -0.373375868403092
142                     104                     108              102.828427      -0.266116853190903      -0.186228904219897    -0.00266017469152998
143                     104                     108                     100       0.334656820909721       0.181633462923356       0.377597807534933
144                     106                     110              105.656854      -0.290362556408377      -0.211081652514775      -0.497403533129802
145                     106                     110              102.828427       0.282028211009213       0.208350946802991     0.00591314127132439
146                     106                     110                     100      -0.288807478554713      -0.198974827745651       0.487405473032904
147                     108                     108              105.656854       0.224371479323095       0.240849845528986      -0.364286908249257
148                     108                     108              102.828427      -0.231084922284142       -0.24130236220284     -0.0016147750273219
149                     108                     108                     100        0.22932396592748       0.235029346561805       0.366900821884222
150                     110                     110              105.656854      -0.203981773061268      -0.239813284912135      -0.476820595322257
151                     110                     110              102.828427       0.223110111022982       0.240193995130257    0.000209082053524393
152                     110                     110                     100       -0.22426179192727       -0.23199004263366        0.47592237927135
153                     112                     108              105.656854       0.192218302210385       0.260184509459429      -0.388312108546346
154                     112                     108              102.828427      -0.204604657299274      -0.270079722713407     0.00522455359749381
155                     112                     108                     100       0.203556649785247       0.267379757927945       0.379427436235672
156                     114                     110              105.656854      -0.198242804154325      -0.216898109439728      -0.433311334167771
157                     114                     110              102.828427       0.215152595849709       0.247934893171045     -0.0161441015910522
158                     114                     110                     100        -0.2152051357405      -0.249232712959834        0.46629628797062
159                     116                     108              105.656854        0.22021213671881       0.268473541729924       -0.40992830530589
160                     116                     108              102.828427      -0.226093334233492      -0.286450047423797       0.010285035991796
161                     116                     108                     100        0.22018043222926       0.286952406167826        0.39243430587816
162                     118                     110              105.656854       -0.26455451011697      -0.228020158841119      -0.416066110927803
163                     118                     110              102.828427       0.260224096273026       0.259269756393739     -0.0160939128147374
164                     118                     110                     100      -0.247475884987426      -0.260199432659954       0.448932164141889
165                     120                     108              105.656854       0.282815112172992       0.293836673664343      -0.423081123582398
166                     120                     108              102.828427      -0.283595225972309      -0.304740378512516     0.00520054964595949
167                     120                     108                     100       0.271496043322977       0.300964733162901        0.41423938118576
168                     122                     110              105.656854      -0.332605835019411      -0.273353771923102      -0.420434122038373
169                     122                     110              102.828427       0.326518374341497        0.27475109753818    0.000230420740125461
170                     122                     110                     100      -0.312500608153561      -0.265476142930886       0.419499370998724
171                     124                     108              105.656854         0.3725130963772       0.310443896579765      -0.436634916777129
172                     124                     108              102.828427      -0.365883125553546      -0.313189369756788     -0.0016040363524835
173                     124                     108                     100       0.367603957502041       0.304654530774023       0.439228281636618
174                     126                     110              105.656854      -0.445074969185955      -0.266883213148044      -0.426013235566658
175                     126                     110              102.828427        0.38161660999027       0.266050572061702     0.00586772924067807
176                     126                     110                     100      -0.446630290585212      -0.254879164892596       0.416104067766834
177                     128                     108              105.656854       0.690963657456924       0.290320118871727      -0.328658704328397
178                     128                     108              102.828427       -0.24765679532175      -0.293740387334336    -0.00263825929665616
179                     128                     108                     100       0.691850453970623       0.285765260725669       0.332845514894235
180                     130                     110              105.656854       -1.18292232527785      -0.227181543607138      -0.837392844687137
181                     130                     110              102.828427       -0.51125757203525       0.230801636721311     0.00356393075250016
182                     130                     110                     100       -1.18616278984459      -0.222879279188453       0.831685827887082
183                     100                     112              105.656854        1.11632257452502       0.138866878151899      -0.807217671430292
184                     100                     112              102.828427       0.584507250798263      -0.140672911327576    -0.00349757293296922
185                     100                     112                     100        1.11230954159224       0.136163501782867        0.81286547436656
186                     102                     114              105.656854      -0.636135546162457      -0.173356536556691       -0.37004983814297
187                     102                     114              102.828427       0.183858995162905       0.174777659233488     0.00734236989629549
188                     102                     114                     100      -0.626258585819418      -0.168586113172947       0.358196167467647
189                     104                     112              105.656854       0.393723590460544       0.188291188141019      -0.379715702308177
190                     104                     112              102.828427      -0.319989080984146      -0.186409682663955     -0.0082233476735846
191                     104                     112                     100       0.384535203052188       0.178010686743096       0.393414117263667
192                     106                     114              105.656854       -0.34746496489622      -0.221833777333863      -0.506873171260601
193                     106                     114              102.828427       0.320763287599933       0.211741106623417      0.0183868049922273
194                     106                     114                     100       -0.32269025512803      -0.200862603839659       0.468131060278508
195                     108                     112              105.656854       0.261025462898941       0.245467751450983      -0.356341518603985
196                     108                     112              102.828427      -0.263866946353913       -0.22382615439601     -0.0120749575885138
197                     108                     112                     100        0.26264627893823        0.21117783239172       0.387093171215066
198                     110                     114              105.656854      -0.163421226750113        -0.2690898428754      -0.547942504859612
199                     110                     114              102.828427       0.230243404408894       0.230308814251598      0.0127859359585608
200                     110                     114                     100      -0.241347156414775      -0.220247420511944       0.456922401632338
201                     112                     112              105.656854       0.159739228323698        0.21719445297327      -0.424182538986328