ITEM: TIMESTEP
0
ITEM: NUMBER OF ATOMS
422
ITEM: BOX BOUNDS pp pp pp
0.0000000000000000e+00 3.2000000000000000e+01
0.0000000000000000e+00 3.2000000000000000e+01
0.0000000000000000e+00 3.2000000000000000e+01
ITEM: ATOMS id xu yu zu fx fy fz
1        13.1459321938386        15.3835208156773                 8.65685     -0.0126342289012051      0.0191153536374018       0.028557805338071
2        18.8274848400711        15.3892262416344                 8.65685      0.0124895447039137      0.0195164022963411      0.0293175255236941
3         17.402344993917         15.387795112765                 8.65685      -0.011202054519165      0.0240600054067221      0.0388661949442959
4         14.571072038949        15.3849519429358                 8.65685      0.0109720727421804      0.0246290563629121      0.0401183134563002
5        16.7010751677692        14.1497248501637                 8.65685      -0.033037754583193     0.00400374949199919      0.0606793939386608
6        15.2748269908674        14.1482926087119                 8.65685      0.0338862634598421     0.00411544058591773       0.063515661890321
7        15.2723418650276        16.6230222053877                 8.65685      0.0103353027894483     -0.0108739182786568      0.0121601608020293
8        16.6985900414216        16.6244544465825                 8.65685     -0.0100356424217286     -0.0103828014765761      0.0112273908074456
9        14.5177569207574        12.9484462411751                 8.65685      0.0169004830532358     -0.0340480235396724      0.0773240581077168
10        17.4605534827313        12.9514014038861                 8.65685     -0.0174233484551203     -0.0336034731445196      0.0763659678156888
11        14.5128635507729         17.821345651893                 8.65685      0.0329762912989434     -0.0114739195841938       0.167299053389304
12        17.4556601106552        17.8243008141789                 8.65685      -0.034298154127043     -0.0110565722213466       0.163573889118212
13        13.1273112602358        12.9624445878976                 8.65685     -0.0212109157166224     -0.0250908196589419      0.0543677063806561
14        13.1224488081137        17.8045547622743                 8.65685     -0.0407728741284442     -0.0090858762713458       0.116500886842066
15         18.850968226168        12.9681922935721                 8.65685      0.0213446706391386     -0.0257490291872242      0.0564803750375551
16        18.8461057714963        17.8103024705805                 8.65685      0.0407529710707509    -0.00913620963597668       0.121271521864303
17         12.426795838139        16.5943199436399                 8.65685    -0.00611877981822372    -0.00613231438759961     0.00316928643081112
18        12.4292290587396        14.1712798150634                 8.65685     -0.0215461012784055     0.00296905973594372      0.0344633111131271
19        19.5466211966922        14.1784271122721                 8.65685      0.0226306780796245     0.00320612505787534      0.0362255950538145
20        19.5441879750283        16.6014672429596                 8.65685     0.00659803620514002    -0.00653419733265875     0.00391777571813333
21        20.9551350226241        14.2244350858224                 8.65685     -0.0391317823816096     0.00847173471060482      0.0916895089106713
22        20.9527913622507        16.5582882295758                 8.65685     -0.0109762170354113     -0.0138761897973418      0.0175576729842488
23        11.0206256731611        14.2144588294926                 8.65685      0.0396033657461587     0.00837402715508445      0.0953657578408969
24        11.0182820131454        16.5483119722736                 8.65685      0.0109297358879749     -0.0141962560241515      0.0181472340765568
25        21.5867264607395        15.3919970781177                 8.65685    -0.00338318065223517      0.0109251483084585      0.0101735082344335
26        10.3866905744716        15.3807499786644                 8.65685     0.00327426210052695      0.0112492654832457      0.0109510220413334
27         21.609196045824        17.5859221409264                 8.65685     -0.0102003914535262     -0.0108108073227165      0.0608931212687823
28        21.6136022867001        13.1981215696947                 8.65685    -0.00742546543745317     -0.0155040178627634      0.0411915323263624
29        10.3598147507275        17.5746254872963                 8.65685     0.00947329889791619     -0.0112075774222875      0.0615716762984502
30        10.3642209902605        13.1868249167297                 8.65685     0.00698998786001937     -0.0157074739985657       0.041133720527625
31        12.5998668222426        12.0154548000933                 8.65685    1.97305722897979e-05   -1.26815240477782e-05     -0.0101457939143685
32        12.5931035005993        18.7504833212092                 8.65685    -0.00201835587310835     0.00093157596635669    -0.00660905548124244
33        19.3803135329519        12.0222637346313                 8.65685   -1.46056865951537e-05    -1.9718099399218e-05     -0.0101276750628427
34        19.3735502071424         18.757292260389                 8.65685     0.00210311797790828     0.00101478223510149    -0.00634921055012964
35        14.9622865728669        11.9689605638796                 8.65685    0.000133552337376866    7.94293951515284e-05    -0.00957548506018282
36         14.955425108682        18.8017221461408                 8.65685     0.00283210609314771     0.00232717960464751    -0.00214373162789291
37        17.0179919240215        11.9710249097393                 8.65685   -0.000125949707849594    7.16114210324697e-05     -0.0096091468114495
38         17.011130457531        18.8037864905846                 8.65685    -0.00279268538125399     0.00221057372108577    -0.00256488693213211
39                       0                       0                5.656854                       0                       0                       0
40                       0                       0                2.828427                       0                       0                       0
41                       0                       0                       0                       0                       0                       0
42                       2                       2                5.656854    1.47977283453715e-09      1.856940369454e-09     5.0720410440643e-10
43                       2                       2                2.828427                       0                       0                       0
44                       2                       2                       0                       0                       0                       0
45                       4                       0                5.656854    5.57210037282963e-11    1.15455312044312e-10    2.62660251045167e-11
46                       4                       0                2.828427                       0                       0                       0
47                       4                       0                       0                       0                       0                       0
48                       6                       2                5.656854    3.98713271358147e-08    7.74895718214305e-08    2.10345954725964e-08
49                       6                       2                2.828427    1.48788545521708e-09    2.91806538303134e-09    1.54065087591055e-09
50                       6                       2                       0    4.96493158763556e-10    1.03697307574585e-09    8.33408400462777e-10
51                       8                       0                5.656854    1.06588992269477e-09    2.62018305579629e-09    7.49676798806721e-10
52                       8                       0                2.828427    6.46684200557902e-10    2.27881772803533e-09    1.05762014586192e-09
53                       8                       0                       0                       0                       0                       0
54                      10                       2                5.656854    1.83827848823249e-07     6.8756607838721e-07    1.91548163903893e-07
55                      10                       2                2.828427    6.29378915327839e-09    2.36238381918496e-08    1.27393354652225e-08
56                      10                       2                       0     2.7476447718695e-09    9.80806598085653e-09    8.01268882369478e-09
57                      12                       0                5.656854    2.04303708344294e-09     1.0959829048914e-08    3.46508680797173e-09
58                      12                       0                2.828427    1.98356261579908e-09    1.31901919929203e-08    7.28273975099802e-09
59                      12                       0                       0    3.45242392767105e-12    6.91527554376268e-11    4.98229189714542e-11
60                      14                       2                5.656854    1.13637813767653e-07    1.72832943888128e-06    4.89267529800905e-07
61                      14                       2                2.828427    3.88163161603485e-09    5.65593695363744e-08     3.0938627207754e-08
62                      14                       2                       0    1.93573334850824e-09    2.44938797729018e-08    2.00703844963755e-08
63                      16                       0                5.656854   -1.79553450960832e-11    1.60213654471053e-08    5.19713996537115e-09
64                      16                       0                2.828427   -2.11474955772096e-11    2.03164700635157e-08    1.16361816248192e-08
65                      16                       0                       0   -1.18730798043805e-13    1.40681972060937e-10     1.0174298191229e-10
66                      18                       2                5.656854   -1.16427115956961e-07    1.71841114713392e-06    4.86341222926414e-07
67                      18                       2                2.828427   -3.97391181481474e-09    5.62651092208833e-08    3.07705337989861e-08
68                      18                       2                       0   -1.97545077741731e-09    2.43821122334668e-08    1.99745325085806e-08
69                      20                       0                5.656854   -2.04878172979593e-09    1.08196648754483e-08     3.4316960472864e-09
70                      20                       0                2.828427   -1.99228114656084e-09    1.30434735748717e-08    7.21303335277985e-09
71                      20                       0                       0   -3.53124988643736e-12    6.85082210200018e-11    4.93305924930443e-11
72                      22                       2                5.656854   -1.82051535136999e-07     6.7599053139514e-07    1.88218157967176e-07
73                      22                       2                2.828427   -6.24213287797466e-09    2.32605400542757e-08    1.25365798626301e-08
74                      22                       2                       0   -2.72898937016721e-09    9.67577212765338e-09    7.90025526573378e-09
75                      24                       0                5.656854   -1.05103968163805e-09    2.56095196390921e-09    7.35369213323043e-10
76                      24                       0                2.828427     -6.376049652104e-10    2.23434602328366e-09    1.03630460353123e-09
77                      24                       0                       0                       0                       0                       0
78                      26                       2                5.656854   -3.89728552523605e-08     7.5476300202368e-08    2.04736579595605e-08
79                      26                       2                2.828427   -1.45702688451064e-09    2.84764758612639e-09    1.50239118686221e-09
80                      26                       2                       0   -4.87458151368831e-10    1.01450063954812e-09    8.14665348894518e-10
81                      28                       0                5.656854   -5.42395736795523e-11    1.12091435492711e-10    2.54789180669873e-11
82                      28                       0                2.828427                       0                       0                       0
83                      28                       0                       0                       0                       0                       0
84                      30                       2                5.656854   -1.43496928403786e-09      1.797504526888e-09    4.90537715151818e-10
85                      30                       2                2.828427                       0                       0                       0
86                      30                       2                       0                       0                       0                       0
87                       0                       4                5.656854    1.04879695883793e-11    5.33476969018237e-10    1.74104064351079e-10
88                       0                       4                2.828427                       0                       0                       0
89                       0                       4                       0                       0                       0                       0
90                       2                       6                5.656854    1.84023685672294e-07    1.57703928838542e-07    6.29591376089202e-08
91                       2                       6                2.828427    6.48588854124466e-09    5.47941496419915e-09    4.26578983551238e-09
92                       2                       6                       0    2.81460637492256e-09    2.37466218690796e-09     2.7944718547751e-09
93                       4                       4                5.656854    2.34046276293093e-08    3.04285243593387e-08    9.80996496392894e-09
94                       4                       4                2.828427    2.77538604294471e-08    3.57217347064268e-08    2.23957668548439e-08
95                       4                       4                       0    2.68598724576363e-10    3.51880837227509e-10     3.4057632773929e-10
96                       6                       6                5.656854    6.86298509894383e-06    9.58095343550939e-06     3.9361115675451e-06
97                       6                       6                2.828427    1.73944298636927e-07    2.38998425283665e-07    1.89146169238392e-07
98                       6                       6                       0    6.23871314503284e-08    8.46134004015108e-08    9.88928045931218e-08
99                       8                       4                5.656854    2.90904885970733e-07    6.55447811245509e-07    2.18281740682269e-07
100                       8                       4                2.828427    2.74548150881481e-07    6.11950449679151e-07    3.92947307388216e-07
101                       8                       4                       0    3.44373795553534e-09     7.6605296899315e-09    7.30973643193479e-09
102                      10                       6                5.656854    4.84580741083742e-05    0.000137746826066682     5.9995497000491e-05
103                      10                       6                2.828427    8.92592559849861e-07    2.48824349966836e-06    2.06575973305381e-06
104                      10                       6                       0     2.4344974101455e-07    6.60847261868697e-07    7.98417015775673e-07
105                      12                       4                5.656854    6.08880471446175e-07    3.54998346055112e-06    1.22676960113089e-06
106                      12                       4                2.828427     4.9881103970829e-07    2.80756406657312e-06    1.86249328543486e-06
107                      12                       4                       0    5.63852723729797e-09    3.08173372847234e-08    3.00567055303107e-08
108                      14                       6                5.656854    2.61187904481627e-05    0.000399327242498718    0.000180836652925739
109                      14                       6                2.828427    4.78358610489789e-07    6.28297573186123e-06    5.40127047769479e-06
110                      14                       6                       0    1.30081402642847e-07    1.48412643210086e-06    1.84640622305928e-06
111                      16                       4                5.656854   -5.63608711291529e-09    5.32634895141403e-06    1.86153244605865e-06
112                      16                       4                2.828427   -4.38215938380768e-09    4.11246647252888e-06    2.75850250786889e-06
113                      16                       4                       0   -4.76448485038607e-11    4.42883645398062e-08    4.35836905181207e-08
114                      18                       6                5.656854   -2.69136000252366e-05    0.000396953789691928    0.000179672544930768
115                      18                       6                2.828427    -4.9098938358225e-07    6.25170963894898e-06    5.37201067669156e-06
116                      18                       6                       0   -1.33111545342044e-07    1.47798292977022e-06    1.83804426690161e-06
117                      20                       4                5.656854   -6.09306794943226e-07    3.50697941591965e-06    1.21119186994216e-06
118                      20                       4                2.828427   -4.99666960731749e-07    2.77774312858014e-06     1.8416967451827e-06
119                      20                       4                       0   -5.65498700073161e-09    3.05378974507484e-08    2.97687189303161e-08
120                      22                       6                5.656854   -4.78678886169523e-05    0.000135096657765809     5.8777171700388e-05
121                      22                       6                2.828427   -8.84325859558765e-07    2.44792061515611e-06    2.03028819850607e-06
122                      22                       6                       0   -2.41823162878178e-07    6.51956384344346e-07    7.86978629030861e-07
123                      24                       4                5.656854   -2.85499935439683e-07    6.40145377030625e-07    2.13005006560968e-07
124                      24                       4                2.828427   -2.70098208835421e-07    5.99163366323386e-07      3.844262420842e-07
125                      24                       4                       0   -3.39737470933434e-09    7.52185021617221e-09    7.17165493018305e-09
126                      26                       6                5.656854   -6.68053481330843e-06    9.29534901329927e-06    3.81413440596587e-06
127                      26                       6                2.828427   -1.69938924960374e-07    2.32744897189071e-07    1.83987332027535e-07
128                      26                       6                       0   -6.11838523100054e-08    8.27224628718087e-08    9.65776807873148e-08
129                      28                       4                5.656854    -2.2729971011625e-08     2.9478923022795e-08    9.49488239047116e-09
130                      28                       4                2.828427    -2.6203603385578e-08    3.40018538617173e-08     2.1280548112081e-08
131                      28                       4                       0   -2.62422184077051e-10    3.43019215055242e-10    3.31636818932482e-10
132                      30                       6                5.656854   -1.77780207812358e-07    1.52226309847447e-07    6.07001423612421e-08
133                      30                       6                2.828427   -6.28703806282366e-09    5.30377547887641e-09    4.12397895991528e-09
134                      30                       6                       0   -2.73855805152872e-09    2.30751490566196e-09    2.71183016554636e-09
135                       0                       8                5.656854    6.26982266814142e-10    1.82965670325072e-08    9.54342842989185e-09
136                       0                       8                2.828427    6.33423664872063e-10    1.99857462459824e-08    2.05935867087605e-08
137                       0                       8                       0    5.54041933720724e-12    1.90185220103427e-10    3.17080680142465e-10
138                       2                      10                5.656854    4.79613106151214e-06    2.14502923412476e-06       1.66220129949e-06
139                       2                      10                2.828427     1.3096371519162e-07    5.96996408198327e-08    8.76988318730589e-08
140                       2                      10                       0     5.0533623305069e-08    2.31391989235037e-08    4.96266776360249e-08
141                       4                       8                5.656854    1.85059263851771e-06    1.50343049763858e-06     8.1224719562553e-07
142                       4                       8                2.828427    1.43717457473031e-06    1.16550596047434e-06    1.20526808980883e-06
143                       4                       8                       0    1.57058046199305e-08    1.27228736203836e-08    1.92158432051441e-08
144                       6                      10                5.656854    0.000481361933520654      0.0003607524873025    0.000300111630713216
145                       6                      10                2.828427    6.19918890798539e-06     4.6486134275143e-06    7.21697535628685e-06
146                       6                      10                       0    1.25786398814772e-06    9.41097181928727e-07     2.0807322782161e-06
147                       8                       8                5.656854    4.78717520103863e-05    7.54063480215599e-05    4.28959518401837e-05
148                       8                       8                2.828427    2.18641691151052e-05    3.30694123927095e-05    3.57872323410303e-05
149                       8                       8                       0    1.49146317966541e-07    2.17491825871757e-07    3.40817741797473e-07
150                      10                      10                5.656854     0.00491282233108014     0.00879402066635948     0.00802241069224745
151                      10                      10                2.828427     3.7954615165533e-05    6.62384996777291e-05    0.000111347656495071
152                      10                      10                       0     4.9872941808438e-06    8.14950846541981e-06     1.9176329324134e-05
153                      12                       8                5.656854    0.000131835726631409    0.000577417894389616    0.000363144400870726
154                      12                       8                2.828427    4.22560834432733e-05    0.000175886964021583    0.000204907618686776
155                      12                       8                       0    2.26359405100489e-07    8.81514552267913e-07    1.45901882351465e-06
156                      14                      10                5.656854     0.00150958850106355      0.0187644876044394      0.0187978525948449
157                      14                      10                2.828427    1.36782323887939e-05    0.000152434669947412    0.000282403915904802
158                      14                      10                       0    2.05726051517878e-06    1.67255726865608e-05    4.20784296066624e-05
159                      16                       8                5.656854   -9.05211705452033e-07    0.000834271714474753    0.000539479084851607
160                      16                       8                2.828427   -2.88897867489019e-07    0.000246286511217119    0.000294485964018453
161                      16                       8                       0   -1.51863629192017e-09    1.20590096656941e-06    2.04125817835479e-06
162                      18                      10                5.656854    -0.00157180174002586      0.0187409005401693      0.0187614732895644
163                      18                      10                2.828427   -1.41396951485168e-05    0.000151999818099047    0.000281309061189958
164                      18                      10                       0   -2.10691989156258e-06    1.66839641703874e-05    4.19391389770991e-05
165                      20                       8                5.656854   -0.000131926104565715    0.000570112795987486    0.000358073561468927
166                      20                       8                2.828427   -4.23692989318413e-05    0.000174169067507383    0.000202674283413047
167                      20                       8                       0   -2.27213618869583e-07    8.74661722011145e-07    1.44626815190112e-06
168                      22                      10                5.656854    -0.00486396991361982     0.00865859230297667     0.00788008003419933
169                      22                      10                2.828427   -3.76744275964518e-05      6.531690553041e-05    0.000109560175734532
170                      22                      10                       0   -4.96352646856918e-06    8.06001180696591e-06    1.89326373612939e-05
171                      24                       8                5.656854   -4.68209106443509e-05    7.33960591538042e-05     4.1680246022196e-05
172                      24                       8                2.828427   -2.14880478403693e-05    3.23548380995247e-05    3.49605468646782e-05
173                      24                       8                       0   -1.47036984666629e-07    2.13555982789446e-07     3.3427091435047e-07
174                      26                      10                5.656854   -0.000466829445836103    0.000349065967126802    0.000289651047242202
175                      26                      10                2.828427     -6.051023929727e-06    4.52659540007156e-06    7.01249741420164e-06
176                      26                      10                       0    -1.2341831237135e-06    9.21083257711106e-07    2.03281934634919e-06
177                      28                       8                5.656854   -1.78991111207689e-06    1.45149272740942e-06    7.82878985552832e-07
178                      28                       8                2.828427   -1.39630744823724e-06    1.13024034768341e-06    1.16702523156384e-06
179                      28                       8                       0   -1.53287359846438e-08    1.23934076898751e-08    1.86924620727731e-08
180                      30                      10                5.656854   -4.62330922859848e-06    2.06744950489804e-06    1.59884623255957e-06
181                      30                      10                2.828427   -1.26751355372101e-07    5.77686455790117e-08     8.4711103268611e-08
182                      30                      10                       0   -4.91534068582878e-08    2.24849660777183e-08    4.81403395970886e-08
183                       0                      12                5.656854    5.33655595741412e-09    6.30529484227481e-08    7.97072711446876e-08
184                       0                      12                2.828427    5.27491501608874e-09    6.99134042330282e-08    1.67216195609749e-07
185                       0                      12                       0    6.51866536824845e-11    1.03446921954003e-09    3.50735721606866e-09
186                       2                      14                5.656854     2.1157622969842e-05    2.07438372834451e-06    7.32462685113633e-06
187                       2                      14                2.828427    5.08892669915412e-07    5.32871407620887e-08    3.40832840635989e-07
188                       2                      14                       0    1.75264871776917e-07    1.93446187095085e-08    1.71475883180313e-07
189                       4                      12                5.656854    3.13388297907929e-05    9.72563852880646e-06    1.39995728909234e-05
190                       4                      12                2.828427    1.66908342754071e-05    5.46492802946445e-06    1.42387548752514e-05
191                       4                      12                       0    1.28145908658916e-07    4.38618046058722e-08    1.58866104388582e-07
192                       6                      14                5.656854     0.00358695988982451    0.000488701541597036       0.002257601128167
193                       6                      14                2.828427    3.31612237560084e-05     5.2721756203726e-06    3.92483025008689e-05
194                       6                      14                       0     4.9976782249628e-06    8.75522751274976e-07    8.42629268503271e-06
195                       8                      12                5.656854     0.00188512712480677     0.00119189427278866     0.00193769362998938
196                       8                      12                2.828427     0.00038478957163554    0.000246160107604112    0.000704746692608152
197                       8                      12                       0     1.4293177612903e-06    9.16309934575475e-07    3.54188872334154e-06
198                      10                      14                5.656854     -0.0308269657234869     0.00382101067704323      -0.163840727929983
199                      10                      14                2.828427     0.00020309705046483    8.34445830802719e-05    0.000720663357242074
200                      10                      14                       0    1.88443297547121e-05    7.70684286840266e-06    8.16980690240461e-05
201                      12                      12                5.656854     0.00155317333083465     0.00504132502206883     0.00768291902219211