ITEM: TIMESTEP
0
ITEM: NUMBER OF ATOMS
422
ITEM: BOX BOUNDS pp pp pp
0.0000000000000000e+00 3.2000000000000000e+01
0.0000000000000000e+00 3.2000000000000000e+01
0.0000000000000000e+00 3.2000000000000000e+01
ITEM: ATOMS id xu yu zu fx fy fz
1        12.3459321938386        15.9835208156773                 8.65685    -0.00214560119686667    0.000149481612085564     -0.0033184070391109
2        18.0274848400711        15.9892262416344                 8.65685     0.00032273122961593    0.000567912660557002      0.0189191629194842
3         16.602344993917         15.987795112765                 8.65685    -0.00376081094984443    0.000180802907295108    -0.00100937657995942
4         13.771072038949        15.9849519429358                 8.65685    -0.00259201874454906    0.000768328263289611      0.0179273852088154
5        15.9010751677692        14.7497248501637                 8.65685     0.00365941666394176      0.0060584530167386      0.0104738068195936
6        14.4748269908674        14.7482926087119                 8.65685       0.022408209195117      0.0353267966521672       0.118398368380552
7        14.4723418650276        17.2230222053877                 8.65685      0.0217177640049788     -0.0357323875350112       0.114952921841046
8        15.8985900414216        17.2244544465825                 8.65685     0.00365781534074319    -0.00609988530299098      0.0099872281170024
9        13.7177569207574        13.5484462411751                 8.65685     -0.0182633399658514     -0.0292378582068798       0.168636212623708
10        16.6605534827313        13.5514014038861                 8.65685      -0.028219909844366     -0.0100454076098651      0.0487476538380932
11        13.7128635507729         18.421345651893                 8.65685     -0.0188594063925806      0.0276883408939987       0.171433933912494
12        16.6556601106552        18.4243008141789                 8.65685     -0.0284287134838001     0.00955754193792759      0.0490923252694084
13        12.3273112602357        13.5624445878976                 8.65685     -0.0150608003435761    -0.00584594635724833      0.0238749820588595
14        12.3224488081137        18.4045547622743                 8.65685     -0.0151052560335548     0.00547084121264687      0.0242570523985635
15         18.050968226168        13.5681922935721                 8.65685     0.00349948810974876      -0.029677875069514       0.180114102839154
16        18.0461057714963        18.4103024705805                 8.65685     0.00320307049427959      0.0285310057747379       0.182457875981065
17         11.626795838139        17.1943199436399                 8.65685      0.0127852261988597     -0.0084265168913816      0.0169212542428399
18        11.6292290587396        14.7712798150634                 8.65685      0.0131537046690726     0.00834158011490537      0.0177802666957099
19        18.7466211966922        14.7784271122721                 8.65685      0.0277871970966681      0.0289670384180648      0.0901570244702018
20        18.7441879750283        17.2014672429596                 8.65685      0.0272117547552002     -0.0291908419194964      0.0883274608778471
21        20.1551350226241        14.8244350858224                 8.65685    -0.00531080376265324     0.00637637031745244     0.00979878489921815
22        20.1527913622507        17.1582882295758                 8.65685    -0.00513527972309585    -0.00636334927594251     0.00939582983727744
23        10.2206256731611        14.8144588294926                 8.65685      0.0108954046833133      0.0402419688195813       0.124751096251597
24        10.2182820131454        17.1483119722736                 8.65685      0.0103746258143765     -0.0404772533752494       0.119461179170574
25        20.7867264607395        15.9919970781177                 8.65685    -0.00156915126745496    6.24380544765355e-05    -0.00780563996948984
26         9.5866905744716        15.9807499786644                 8.65685    -0.00153303341575989    0.000368307258189357    -0.00212351090990484
27         20.809196045824        18.1859221409264                 8.65685     -0.0148348441604395      0.0023192992437204      0.0221671568865529
28        20.8136022867001        13.7981215696947                 8.65685     -0.0148274951919727    -0.00252510150313852      0.0222621128651888
29        9.55981475072747        18.1746254872963                 8.65685     -0.0122705022619889     0.00485674537699553      0.0659596267082911
30        9.56422099026049        13.7868249167297                 8.65685     -0.0120595933128955    -0.00588740996611126      0.0653806087538453
31        11.7998668222426        12.6154548000933                 8.65685    0.000177111857781397   -4.94760765687053e-05     -0.0100312299126902
32        11.7931035005993        19.3504833212092                 8.65685    0.000206881877808506    6.56814445995569e-05    -0.00998351047920459
33        18.5803135329519        12.6222637346313                 8.65685    0.000928740301023662    -0.00251463715699839    -0.00554462042838023
34        18.5735502071424         19.357292260389                 8.65685    0.000969584885661304     0.00260258495857876    -0.00529461237015487
35        14.1622865728669        12.5689605638796                 8.65685    0.000292496714993457    -0.00292942471031487    -0.00486632833099532
36         14.155425108682        19.4017221461408                 8.65685    0.000300732021892236     0.00307008198219211    -0.00449394083593478
37        16.2179919240215        12.5710249097393                 8.65685   -0.000162604288343956   -4.73448103407926e-05     -0.0100625713313994
38         16.211130457531        19.4037864905846                 8.65685    -0.00017401293022401    5.06094779073873e-05     -0.0100417545558386
39                       0                       0                5.656854                       0                       0                       0
40                       0                       0                2.828427                       0                       0                       0
41                       0                       0                       0                       0                       0                       0
42                       2                       2                5.656854     1.3524978605833e-09    1.93914325333355e-09    5.04336103461916e-10
43                       2                       2                2.828427                       0                       0                       0
44                       2                       2                       0                       0                       0                       0
45                       4                       0                5.656854                       0                       0                       0
46                       4                       0                2.828427                       0                       0                       0
47                       4                       0                       0                       0                       0                       0
48                       6                       2                5.656854    2.65402276650348e-08    5.99781390434272e-08    1.55557292674015e-08
49                       6                       2                2.828427    9.31399035063735e-10    2.14794884491278e-09    1.08958400993679e-09
50                       6                       2                       0    1.73926847199026e-10     3.1833706558284e-10    2.59602275935139e-10
51                       8                       0                5.656854    8.11357576091586e-10     6.7192901852618e-11    6.69071561809693e-10
52                       8                       0                2.828427    4.64268421607332e-10    3.19211739249473e-11    7.12738118911417e-10
53                       8                       0                       0                       0                       0                       0
54                      10                       2                5.656854    8.44775752665806e-08    3.94165134831483e-07    1.04594370527957e-07
55                      10                       2                2.828427    2.98881588295665e-09    1.40239826883687e-08    7.22581545799905e-09
56                      10                       2                       0    1.23156454974223e-09    6.11817640732327e-09    4.73674116290506e-09
57                      12                       0                5.656854    1.15471982437821e-09    2.41750382881698e-10    2.55066009480196e-09
58                      12                       0                2.828427    1.29477249347176e-09     2.7216904472727e-10    5.95141432755815e-09
59                      12                       0                       0                       0                       0                       0
60                      14                       2                5.656854     2.9005163879948e-08    7.84013437409524e-07    2.10576633810479e-07
61                      14                       2                2.828427    1.03428588784639e-09    2.73141601891713e-08    1.42122405735893e-08
62                      14                       2                       0    3.41811218478676e-10     1.1451790184584e-08    8.98300320771713e-09
63                      16                       0                5.656854   -3.33548948335492e-10    2.71241031323413e-10     3.3000510495485e-09
64                      16                       0                2.828427   -2.11675209568906e-10    3.15917702591245e-10    8.13452980202255e-09
65                      16                       0                       0                       0                       0                       0
66                      18                       2                5.656854   -6.58815329466827e-08    6.67539067011165e-07    1.78796412150136e-07
67                      18                       2                2.828427   -2.34823128927533e-09    2.33506637244354e-08    1.21169590517925e-08
68                      18                       2                       0   -5.99976048507962e-10    9.44657592809266e-09    7.38395449451497e-09
69                      20                       0                5.656854   -1.27595430082002e-09    1.24126337778074e-10    1.73630099358892e-09
70                      20                       0                2.828427   -1.19806576397518e-09    1.10184301613809e-10    3.24149800869878e-09
71                      20                       0                       0                       0                       0                       0
72                      22                       2                5.656854   -6.39632418306207e-08    2.10901843340633e-07    5.54863831286328e-08
73                      22                       2                2.828427   -2.32173786369802e-09    7.73372937899649e-09    3.95523947783898e-09
74                      22                       2                       0   -9.27719580564881e-10    3.19950993670306e-09    2.47418173171957e-09
75                      24                       0                5.656854   -3.18065558280359e-10    1.34434040729159e-11    2.20676077531207e-10
76                      24                       0                2.828427   -2.97595548297135e-10    1.01662419283332e-11    3.19842833219357e-10
77                      24                       0                       0                       0                       0                       0
78                      26                       2                5.656854   -1.02790454766729e-08    1.89030722762677e-08     4.8664611812476e-09
79                      26                       2                2.828427   -2.71645164547035e-10    5.23627400841182e-10    2.67435946110165e-10
80                      26                       2                       0                       0                       0                       0
81                      28                       0                5.656854                       0                       0                       0
82                      28                       0                2.828427                       0                       0                       0
83                      28                       0                       0                       0                       0                       0
84                      30                       2                5.656854                       0                       0                       0
85                      30                       2                2.828427                       0                       0                       0
86                      30                       2                       0                       0                       0                       0
87                       0                       4                5.656854    4.23066182446569e-10    4.15728070767288e-10    1.29218711092966e-10
88                       0                       4                2.828427    5.31948004919399e-10    5.44328910242804e-10    3.24168376058393e-10
89                       0                       4                       0                       0                       0                       0
90                       2                       6                5.656854    2.24908752960562e-07    2.22561997741465e-07    8.29870703299772e-08
91                       2                       6                2.828427    7.71833486020236e-09    7.62033675495974e-09    5.53062255587327e-09
92                       2                       6                       0    3.23149878794624e-09    3.21487996347129e-09    3.51392735797549e-09
93                       4                       4                5.656854    2.05325593565798e-08    3.09223358519325e-08    9.43937563099311e-09
94                       4                       4                2.828427    2.45995698012571e-08     3.6678066179274e-08    2.17622944445267e-08
95                       4                       4                       0    2.32018434249157e-10    3.58826684057746e-10    3.27399087965545e-10
96                       6                       6                5.656854    5.53760734129481e-06    9.24067068403696e-06    3.55391919752901e-06
97                       6                       6                2.828427    1.43616859427691e-07    2.35665822580007e-07    1.74705248060826e-07
98                       6                       6                       0    5.32977506836982e-08     8.6001191724113e-08    9.40771187553573e-08
99                       8                       4                5.656854     1.7391423923542e-07    4.69098194561827e-07    1.48032082401504e-07
100                       8                       4                2.828427     1.7116521589557e-07     4.5761680387724e-07    2.78479224482529e-07
101                       8                       4                       0    2.21164642260415e-09    5.98710149447816e-09     5.4102774600922e-09
102                      10                       6                5.656854    2.46602447145397e-05    8.98863775281765e-05    3.65080468250954e-05
103                      10                       6                2.828427    4.93305628372224e-07    1.75968504394658e-06     1.3642367311948e-06
104                      10                       6                       0    1.44793962508694e-07    5.03065661009427e-07    5.68612656860754e-07
105                      12                       4                5.656854    2.24950630962738e-07    1.83911024727818e-06    5.97032086775086e-07
106                      12                       4                2.828427    2.04189422159117e-07    1.59176507797904e-06     9.9382304237121e-07
107                      12                       4                       0    2.50619258486473e-09       1.91402731483e-08    1.75975976001781e-08
108                      14                       6                5.656854    6.52413016875937e-06     0.00019211965876504     8.0046361061884e-05
109                      14                       6                2.828427    1.40838406136845e-07    3.47906127482877e-06    2.76276524152632e-06
110                      14                       6                       0    4.41985895116836e-08    9.26643302252076e-07    1.06984255387598e-06
111                      16                       4                5.656854   -5.85755979718934e-08    2.30791809783528e-06    7.53640637417613e-07
112                      16                       4                2.828427    -5.4860446171401e-08    1.97714393686084e-06    1.24177407959574e-06
113                      16                       4                       0   -6.38115832211599e-10    2.34998126685487e-08    2.17284494741206e-08
114                      18                       6                5.656854   -1.81755641742636e-05    0.000165259673587285    6.84127378626839e-05
115                      18                       6                2.828427   -3.60591956869563e-07    3.01200866695734e-06    2.37697583200837e-06
116                      18                       6                       0   -1.05661344002984e-07    8.08202424030336e-07    9.27788510157121e-07
117                      20                       4                5.656854   -2.68601435015609e-07    1.23915609582066e-06      3.986442836997e-07
118                      20                       4                2.828427   -2.44319740353161e-07      1.105870311959e-06    6.84833644966488e-07
119                      20                       4                       0   -3.01053556152103e-09    1.36275888134919e-08    1.24447100849142e-08
120                      22                       6                5.656854   -1.69792655517094e-05    4.24904296001061e-05    1.68651070580105e-05
121                      22                       6                2.828427   -3.72396574693197e-07    9.15843164601885e-07    6.96585986355882e-07
122                      22                       6                       0   -1.18187174729266e-07    2.85450783476686e-07    3.17729060167529e-07
123                      24                       4                5.656854   -8.74907246719016e-08    1.80840533973801e-07    5.61458620945763e-08
124                      24                       4                2.828427   -9.21732794102003e-08     1.8942688915838e-07    1.13826331652272e-07
125                      24                       4                       0    -1.3341080709799e-09    2.69770799355904e-09    2.41729120310379e-09
126                      26                       6                5.656854   -1.79175420322081e-06    2.36610847342423e-06    8.95124018426716e-07
127                      26                       6                2.828427   -5.29385587412199e-08     6.9173379589763e-08    5.05068013612911e-08
128                      26                       6                       0   -2.19881163998114e-08    2.82253942644773e-08    3.07251354554802e-08
129                      28                       4                5.656854   -5.55224584235465e-09    6.96934542464959e-09    2.11164443766494e-09
130                      28                       4                2.828427   -6.62421387579587e-09    8.25756711782845e-09     4.9090419645425e-09
131                      28                       4                       0   -6.56410079408974e-11    8.94966576330609e-11    7.90722114560273e-11
132                      30                       6                5.656854   -3.91092990750154e-08    3.53129462141993e-08    1.31469374634444e-08
133                      30                       6                2.828427    -1.4821985878963e-09    1.26528853523533e-09    9.11407746330946e-10
134                      30                       6                       0   -5.41034618802061e-10    4.59271834565105e-10    5.09846806762539e-10
135                       0                       8                5.656854    2.56974128633798e-08     2.0380245586776e-08    9.77446603982931e-09
136                       0                       8                2.828427    2.99318612803437e-08    2.43339224599604e-08    2.25991214627677e-08
137                       0                       8                       0    2.97330956421234e-10    1.79899877772127e-10    2.69122753721007e-10
138                       2                      10                5.656854    8.74122918519915e-06    4.78845071850206e-06    3.30516004193912e-06
139                       2                      10                2.828427    2.20123167143301e-07     1.2189442025441e-07    1.59854502492569e-07
140                       2                      10                       0    8.03108086576171e-08     4.4997415616877e-08    8.54994057384446e-08
141                       4                       8                5.656854    2.22335969202085e-06    2.20101978818334e-06    1.08830033979023e-06
142                       4                       8                2.828427    1.67764127985252e-06    1.64680489553391e-06    1.56231940777807e-06
143                       4                       8                       0    1.77461790715018e-08    1.73098490658585e-08    2.40447102443938e-08
144                       6                      10                5.656854    0.000558396064527327    0.000554512029484537    0.000406029349751608
145                       6                      10                2.828427    6.91501769539312e-06    6.72528567907095e-06    9.26616919586241e-06
146                       6                      10                       0    1.35999155392353e-06    1.29684356631165e-06    2.56122979532654e-06
147                       8                       8                5.656854    3.43763280987437e-05    6.74895713268226e-05    3.53437535200544e-05
148                       8                       8                2.828427    1.65588967838368e-05    3.13623950008548e-05    3.12378753577521e-05
149                       8                       8                       0    1.17705094127892e-07    2.14960679064485e-07    3.10316441382856e-07
150                      10                      10                5.656854     0.00330050707659783     0.00809554347016314     0.00661181350025094
151                      10                      10                2.828427    2.63657989951679e-05    6.24111111073802e-05    9.36811441139441e-05
152                      10                      10                       0    3.63755788516285e-06     8.1107897643608e-06    1.70731619796383e-05
153                      12                       8                5.656854    5.05319465669673e-05    0.000346865130584502     0.00019645235358504
154                      12                       8                2.828427    1.95584108460695e-05     0.00012165550806897    0.000128815830484596
155                      12                       8                       0    1.19714021467054e-07     6.7532484423586e-07    1.02175016145711e-06
156                      14                      10                5.656854    0.000335654729160839      0.0154745910056919      0.0135966314776157
157                      14                      10                2.828427    4.29181740695728e-06    0.000114323400428093    0.000183236361714926
158                      14                      10                       0    8.36811939261229e-07    1.38298574286133e-05    3.05711661502858e-05
159                      16                       8                5.656854   -7.45390844245949e-06    0.000420501070358812    0.000241375533961836
160                      16                       8                2.828427    -3.9197998289245e-06     0.00014670787351161    0.000157350656031151
161                      16                       8                       0   -2.90885339500589e-08    8.09091711694749e-07    1.23835246675532e-06
162                      18                      10                5.656854    -0.00206605045317424      0.0140421656591556      0.0121532977715801
163                      18                      10                2.828427   -1.63811204275324e-05    0.000103499727327651    0.000163469558991759
164                      18                      10                       0   -2.30459410360769e-06    1.24545466344839e-05    2.71810722787448e-05
165                      20                       8                5.656854   -6.41553898278912e-05    0.000219724714305539    0.000121560788272926
166                      20                       8                2.828427   -2.50931441933286e-05    8.35305059266807e-05    8.66099216727035e-05
167                      20                       8                       0   -1.54124932908881e-07    4.90551173314898e-07    7.29586192529782e-07
168                      22                      10                5.656854    -0.00218375852038227     0.00364579263506755     0.00280507586435129
169                      22                      10                2.828427    -2.0117286303473e-05    3.17785909907296e-05    4.56446509830964e-05
170                      22                      10                       0   -3.09629629092937e-06    4.63070936728772e-06    9.45400494563292e-06
171                      24                       8                5.656854   -1.42826784230413e-05    2.06980295085989e-05    1.05064434882923e-05
172                      24                       8                2.828427   -8.13834924056127e-06    1.14604374846313e-05    1.11316921137619e-05
173                      24                       8                       0   -6.66668944847401e-08    9.13905958604112e-08    1.29438314709737e-07
174                      26                      10                5.656854   -0.000125650950632757    9.38675908850176e-05    6.69658976065152e-05
175                      26                      10                2.828427   -2.09063974075084e-06    1.56284817349045e-06     2.1046915996143e-06
176                      26                      10                       0   -5.22169455972051e-07    3.90262999675839e-07    7.56543162913204e-07
177                      28                       8                5.656854   -4.37902366331411e-07    3.52418641620941e-07    1.71550151463738e-07
178                      28                       8                2.828427   -4.02704382598907e-07    3.23924151543093e-07    3.03157547309987e-07
179                      28                       8                       0   -5.02304992448332e-09    4.04255080585584e-09    5.59211482721982e-09
180                      30                      10                5.656854   -1.09850468245225e-06    5.54086111428513e-07    3.72999951292072e-07
181                      30                      10                2.828427   -3.46654223665674e-08    1.78265848470605e-08    2.29602739321016e-08
182                      30                      10                       0   -1.49748240780047e-08    7.58472398434042e-09     1.4536681684083e-08
183                       0                      12                5.656854    3.14536460668787e-07    1.08327321061921e-07    1.16174123434229e-07
184                       0                      12                2.828427    3.03014625822697e-07    1.10885780827406e-07    2.24927871806738e-07
185                       0                      12                       0    3.96590742427797e-09    1.50457933754365e-09    4.46151015278949e-09
186                       2                      14                5.656854    5.69288189550196e-05    8.58321470937899e-06    2.15905958237132e-05
187                       2                      14                2.828427    1.18221401761901e-06    1.90772798777003e-07    8.62270418316458e-07
188                       2                      14                       0    3.52790603962389e-07    6.02735909778904e-08    3.77120391700369e-07
189                       4                      12                5.656854    6.25651610341321e-05    2.62724042111865e-05    3.16678247395051e-05
190                       4                      12                2.828427    2.85344731207501e-05    1.24909525083651e-05    2.73884252514035e-05
191                       4                      12                       0    1.93879825181937e-07    8.76236618498657e-08    2.68399045996563e-07
192                       6                      14                5.656854      0.0069119138934424     0.00167500958010616     0.00517135998666625
193                       6                      14                2.828427    5.44350499021941e-05    1.45832345958486e-05    7.57179672644108e-05
194                       6                      14                       0    7.11989086421368e-06    2.06152845636187e-06    1.38817041104381e-05
195                       8                      12                5.656854     0.00190455935317478      0.0018576269391936     0.00243851127216362
196                       8                      12                2.828427    0.000390512760083804    0.000367470114270939    0.000874865728451199
197                       8                      12                       0    1.42984877837521e-06    1.29496479894337e-06    4.22617303316149e-06
198                      10                      14                5.656854   -0.000306312214646034     -0.0293418672829354      -0.225409420635691
199                      10                      14                2.828427    0.000174848208693795    0.000140441023069717    0.000841728883935936
200                      10                      14                       0     1.6726698386256e-05    1.25760748675768e-05    9.37248155314831e-05
201                      12                      12                5.656854     0.00126390315988858      0.0052011278201388     0.00719276636633667