ITEM: TIMESTEP
0
ITEM: NUMBER OF ATOMS
422
ITEM: BOX BOUNDS ff ff ff
0.0000000000000000e+00 2.3200000000000000e+02
0.0000000000000000e+00 2.3200000000000000e+02
0.0000000000000000e+00 2.3200000000000000e+02
ITEM: ATOMS id xu yu zu fx fy fz
1        113.149701798847        115.987290420685        108.660623605008     0.00107336617418268     0.00054979946187736      0.0712018110843625
2        118.833128536727        115.994869938291        108.662497696656      0.0004955145984882     0.00073074154476137      0.0836171356857277
3        117.443928238111        116.029378356959        108.698437244194    0.000841086896440187    -0.00142240166376456     -0.0853031834816288
4         114.57283462772        115.986714531707        108.658616588771    -0.00212460452294604    9.24693015797422e-05      -0.081179514942515
5         116.69623263097        114.744882313364          108.6520114632    0.000242351903655626   -0.000845059907475483    -0.00694463378827844
6         115.22520409295        114.698669710795        108.607231102083     0.00319388502408722     0.00237321385365163       0.112622540016987
7        115.224408588268        117.175088928628         108.60892072324    0.000907492650495781    0.000771604559318541      0.0196222977395938
8         116.66645752718        117.192321932341        108.624721485758    -0.00174137053218519    0.000374773800798582      0.0674930885813221
9        114.555580254096        113.586269574513        108.694677333338    -0.00402995201079756    -0.00250497934152129       -0.09639123343511
10        117.454123588826         113.54497150998        108.650424106094   -5.06826954825875e-05   -9.95639127923446e-05     0.00731309036753221
11        114.464063447285        118.372545548405        108.608053896512   -0.000258108811173061    -0.00069313210546782    -0.00256242078683232
12        117.483094133935        118.451734837458        108.684288023279    -0.00209904319901443     0.00111263771946197     -0.0868183724513877
13        113.161428789368         113.59656211703        108.690971529132    6.73267616517324e-07     0.00037406228878396      0.0245370279147492
14        113.077987495405        118.360093449565        108.612392687291     0.00164431477301423      0.0022943418616951      0.0544059004535928
15         118.85555677181        113.572780839214        108.661442545642    2.66489377715103e-05   -4.33052377018547e-06     0.00185090595868861
16        118.801558556251        118.365755255335        108.612306784755     0.00144341146044604     0.00175198930339893       0.115882206947409
17        112.459560795145        117.227084900646        108.689618957006   -0.000380870305942235    -0.00234189350655849      -0.154137696100666
18        112.472049063631        114.814099819955        108.699674004892     0.00313447906292091     0.00162858368284589      -0.123141466536249
19        119.578644351742        114.810450267322         108.68887715505     -0.0047304138102177    -0.00124516914044215      -0.160275426506511
20        119.570339505819         117.22761877375        108.683005530791   -9.71775497299025e-05    -0.00279777513072039      -0.108921556937515
21        120.935594185972         114.80489424917        108.637313163348     0.00598608736302154      0.0026047321081196       0.349453344342312
22        120.947304351161        117.152801218486         108.65136698891     0.00167342904483604    0.000768243676709357      0.0838259740434235
23        111.007755738656        114.801588894987        108.643984065495    -0.00537154776723895    -0.00789060253392295       0.263980463091525
24        111.028421957932         117.15845191706        108.666993944787    0.000200375645802374      0.0019402600077434       0.272638953555594
25        121.580391334724        115.985661952102        108.650518873985   -0.000914504037208379     0.00126890315946642       -0.12470630480581
26        110.426408091225        116.020467495418        108.696571516753    0.000129230748414124     0.00206682298002536      -0.168154448201486
27        121.592297457337         118.16902355244        108.639955411513     -0.0003847748435212   -1.80075927786225e-05     -0.0233514465354989
28          121.6160851005        113.800604383495          108.6593368138   -0.000693087838958205    -0.00313746059798871      -0.121654668961463
29        110.385397700177        118.200208436746        108.682436949449   -0.000946251382029961    0.000757214438553133     -0.0904808164766152
30        110.323804748109        113.746408674578        108.616437757849     0.00108904277252573     0.00175839626074977     -0.0943965656092232
31        112.608088968147        112.623676945997        108.665076145904   -3.31128503046791e-05   -6.93137404869025e-05     0.00331167019934297
32         112.55421661114         119.31159643175        108.617967110541   -0.000536494736780904   -0.000206392346446733     -0.0151795774655435
33        119.351912244688        112.593862446367        108.628452711736    6.87607374804153e-06   -0.000133486300298289     0.00406443911699773
34        119.362481936183         119.34622398943        108.645785729041    0.000387171270484883    0.000771738706882849     -0.0290881063132831
35        114.957881828117        112.564555819129         108.65244925525     0.00157332530529353   -0.000492280103922185      0.0268996518872127
36        114.935252609586        119.381549647045        108.636681500904    7.59301840505528e-05    0.000153086487162959    -0.00664541713667276
37        117.009086566017        112.562119551735        108.647948641995    6.99866737430879e-06    7.45476378382337e-07    -0.00155419705426141
38        117.057990562522        119.450646595576        108.703714104991    0.000260305068860948   -0.000242512231607169      0.0181665525401773
39                     100                     100              105.656854                       0                       0                       0
40                     100                     100              102.828427                       0                       0                       0
41                     100                     100                     100                       0                       0                       0
42                     102                     102              105.656854                       0                       0                       0
43                     102                     102              102.828427                       0                       0                       0
44                     102                     102                     100                       0                       0                       0
45                     104                     100              105.656854                       0                       0                       0
46                     104                     100              102.828427                       0                       0                       0
47                     104                     100                     100                       0                       0                       0
48                     106                     102              105.656854                       0                       0                       0
49                     106                     102              102.828427                       0                       0                       0
50                     106                     102                     100                       0                       0                       0
51                     108                     100              105.656854                       0                       0                       0
52                     108                     100              102.828427                       0                       0                       0
53                     108                     100                     100                       0                       0                       0
54                     110                     102              105.656854                       0                       0                       0
55                     110                     102              102.828427                       0                       0                       0
56                     110                     102                     100                       0                       0                       0
57                     112                     100              105.656854                       0                       0                       0
58                     112                     100              102.828427                       0                       0                       0
59                     112                     100                     100                       0                       0                       0
60                     114                     102              105.656854                       0                       0                       0
61                     114                     102              102.828427                       0                       0                       0
62                     114                     102                     100                       0                       0                       0
63                     116                     100              105.656854                       0                       0                       0
64                     116                     100              102.828427                       0                       0                       0
65                     116                     100                     100                       0                       0                       0
66                     118                     102              105.656854                       0                       0                       0
67                     118                     102              102.828427                       0                       0                       0
68                     118                     102                     100                       0                       0                       0
69                     120                     100              105.656854                       0                       0                       0
70                     120                     100              102.828427                       0                       0                       0
71                     120                     100                     100                       0                       0                       0
72                     122                     102              105.656854                       0                       0                       0
73                     122                     102              102.828427                       0                       0                       0
74                     122                     102                     100                       0                       0                       0
75                     124                     100              105.656854                       0                       0                       0
76                     124                     100              102.828427                       0                       0                       0
77                     124                     100                     100                       0                       0                       0
78                     126                     102              105.656854                       0                       0                       0
79                     126                     102              102.828427                       0                       0                       0
80                     126                     102                     100                       0                       0                       0
81                     128                     100              105.656854                       0                       0                       0
82                     128                     100              102.828427                       0                       0                       0
83                     128                     100                     100                       0                       0                       0
84                     130                     102              105.656854                       0                       0                       0
85                     130                     102              102.828427                       0                       0                       0
86                     130                     102                     100                       0                       0                       0
87                     100                     104              105.656854                       0                       0                       0
88                     100                     104              102.828427                       0                       0                       0
89                     100                     104                     100                       0                       0                       0
90                     102                     106              105.656854                       0                       0                       0
91                     102                     106              102.828427                       0                       0                       0
92                     102                     106                     100                       0                       0                       0
93                     104                     104              105.656854                       0                       0                       0
94                     104                     104              102.828427                       0                       0                       0
95                     104                     104                     100                       0                       0                       0
96                     106                     106              105.656854                       0                       0                       0
97                     106                     106              102.828427                       0                       0                       0
98                     106                     106                     100                       0                       0                       0
99                     108                     104              105.656854                       0                       0                       0
100                     108                     104              102.828427                       0                       0                       0
101                     108                     104                     100                       0                       0                       0
102                     110                     106              105.656854                       0                       0                       0
103                     110                     106              102.828427                       0                       0                       0
104                     110                     106                     100                       0                       0                       0
105                     112                     104              105.656854                       0                       0                       0
106                     112                     104              102.828427                       0                       0                       0
107                     112                     104                     100                       0                       0                       0
108                     114                     106              105.656854                       0                       0                       0
109                     114                     106              102.828427                       0                       0                       0
110                     114                     106                     100                       0                       0                       0
111                     116                     104              105.656854                       0                       0                       0
112                     116                     104              102.828427                       0                       0                       0
113                     116                     104                     100                       0                       0                       0
114                     118                     106              105.656854                       0                       0                       0
115                     118                     106              102.828427                       0                       0                       0
116                     118                     106                     100                       0                       0                       0
117                     120                     104              105.656854                       0                       0                       0
118                     120                     104              102.828427                       0                       0                       0
119                     120                     104                     100                       0                       0                       0
120                     122                     106              105.656854                       0                       0                       0
121                     122                     106              102.828427                       0                       0                       0
122                     122                     106                     100                       0                       0                       0
123                     124                     104              105.656854                       0                       0                       0
124                     124                     104              102.828427                       0                       0                       0
125                     124                     104                     100                       0                       0                       0
126                     126                     106              105.656854                       0                       0                       0
127                     126                     106              102.828427                       0                       0                       0
128                     126                     106                     100                       0                       0                       0
129                     128                     104              105.656854                       0                       0                       0
130                     128                     104              102.828427                       0                       0                       0
131                     128                     104                     100                       0                       0                       0
132                     130                     106              105.656854                       0                       0                       0
133                     130                     106              102.828427                       0                       0                       0
134                     130                     106                     100                       0                       0                       0
135                     100                     108              105.656854                       0                       0                       0
136                     100                     108              102.828427                       0                       0                       0
137                     100                     108                     100                       0                       0                       0
138                     102                     110              105.656854                       0                       0                       0
139                     102                     110              102.828427                       0                       0                       0
140                     102                     110                     100                       0                       0                       0
141                     104                     108              105.656854                       0                       0                       0
142                     104                     108              102.828427                       0                       0                       0
143                     104                     108                     100                       0                       0                       0
144                     106                     110              105.656854                       0                       0                       0
145                     106                     110              102.828427                       0                       0                       0
146                     106                     110                     100                       0                       0                       0
147                     108                     108              105.656854                       0                       0                       0
148                     108                     108              102.828427                       0                       0                       0
149                     108                     108                     100                       0                       0                       0
150                     110                     110              105.656854                       0                       0                       0
151                     110                     110              102.828427                       0                       0                       0
152                     110                     110                     100                       0                       0                       0
153                     112                     108              105.656854                       0                       0                       0
154                     112                     108              102.828427                       0                       0                       0
155                     112                     108                     100                       0                       0                       0
156                     114                     110              105.656854                       0                       0                       0
157                     114                     110              102.828427                       0                       0                       0
158                     114                     110                     100                       0                       0                       0
159                     116                     108              105.656854                       0                       0                       0
160                     116                     108              102.828427                       0                       0                       0
161                     116                     108                     100                       0                       0                       0
162                     118                     110              105.656854                       0                       0                       0
163                     118                     110              102.828427                       0                       0                       0
164                     118                     110                     100                       0                       0                       0
165                     120                     108              105.656854                       0                       0                       0
166                     120                     108              102.828427                       0                       0                       0
167                     120                     108                     100                       0                       0                       0
168                     122                     110              105.656854                       0                       0                       0
169                     122                     110              102.828427                       0                       0                       0
170                     122                     110                     100                       0                       0                       0
171                     124                     108              105.656854                       0                       0                       0
172                     124                     108              102.828427                       0                       0                       0
173                     124                     108                     100                       0                       0                       0
174                     126                     110              105.656854                       0                       0                       0
175                     126                     110              102.828427                       0                       0                       0
176                     126                     110                     100                       0                       0                       0
177                     128                     108              105.656854                       0                       0                       0
178                     128                     108              102.828427                       0                       0                       0
179                     128                     108                     100                       0                       0                       0
180                     130                     110              105.656854                       0                       0                       0
181                     130                     110              102.828427                       0                       0                       0
182                     130                     110                     100                       0                       0                       0
183                     100                     112              105.656854                       0                       0                       0
184                     100                     112              102.828427                       0                       0                       0
185                     100                     112                     100                       0                       0                       0
186                     102                     114              105.656854                       0                       0                       0
187                     102                     114              102.828427                       0                       0                       0
188                     102                     114                     100                       0                       0                       0
189                     104                     112              105.656854                       0                       0                       0
190                     104                     112              102.828427                       0                       0                       0
191                     104                     112                     100                       0                       0                       0
192                     106                     114              105.656854                       0                       0                       0
193                     106                     114              102.828427                       0                       0                       0
194                     106                     114                     100                       0                       0                       0
195                     108                     112              105.656854                       0                       0                       0
196                     108                     112              102.828427                       0                       0                       0
197                     108                     112                     100                       0                       0                       0
198                     110                     114              105.656854                       0                       0                       0
199                     110                     114              102.828427                       0                       0                       0
200                     110                     114                     100                       0                       0                       0
201                     112                     112              105.656854                       0                       0                       0