ITEM: TIMESTEP
0
ITEM: NUMBER OF ATOMS
422
ITEM: BOX BOUNDS ff ff ff
0.0000000000000000e+00 2.3200000000000000e+02
0.0000000000000000e+00 2.3200000000000000e+02
0.0000000000000000e+00 2.3200000000000000e+02
ITEM: ATOMS id xu yu zu fx fy fz
1        113.122735577606        115.960324199445        108.633657383768    0.000635456005864458     0.00195397623310591       0.040096734273467
2        118.876227158643        116.037968560206        108.705596318572   -0.000484155573522324    0.000112152111267336     -0.0501633304965481
3        117.423712643395        116.009162762243        108.678221649478     0.00019710628040678    0.000978715498211229    -0.00636043173571886
4          114.5888339106        116.002713814587        108.674615871651     0.00054132731808214    -1.7991618011122e-05     0.00749409418127036
5        116.663201363687        114.711851046081        108.618980195918     0.00171764321238577    0.000673296175152785       0.101956129209086
6        115.311682277688        114.785147895533        108.693709286821    -0.00277360175441467     -0.0002210862670393     -0.0789456411489592
7        115.309434114973        117.260114455334        108.693946249946    5.26489000841935e-05   -3.87554911426399e-05     -0.0100360456818803
8        116.738288825925        117.264153231086        108.696552784504   -0.000400973513951495   -0.000157638397706661     -0.0179605909046176
9        114.530444363694        113.561133684111        108.669541442936    9.67108361768949e-05   -0.000220599584856082      0.0140308142676549
10        117.477357094621        113.568205015776         108.67365761189    0.000793464123821205    -0.00151645256141974     -0.0387342863320038
11        114.533756504006        118.442238605126        108.677746953233    0.000556015048285864   -6.46954728976245e-05      0.0401189410488301
12         117.46541018406        118.434050887584        108.666604073405    9.77699841569408e-06   -1.04348439630427e-05      0.0012062191258448
13        113.113312795253        113.548446122915        108.642855535017     0.00112440368810208   -0.000895340729439606      0.0635514297095351
14        113.171127808506        118.453233762667        108.705533000392     0.00113804011279566     0.00156756313511075     -0.0875371074743877
15        118.891147382104        113.608371449508        108.697033155936    -0.00116545605512317     0.00072047918776694     -0.0569478381939603
16        118.814246329981        118.378443029065        108.624994558484    5.71968241429897e-06    0.000128292001711982      0.0515565073431153
17        112.390480166516        117.158004272017        108.620538328377     0.00437307994170102    -0.00489588897770484       0.181678008708347
18        112.467430696264        114.809481452588        108.695055637525    -0.00131695391822081   -0.000593232829086981     -0.0800830319214123
19        119.558645049558        114.790450965138        108.668877852865    -0.00276204345973826     0.00273826284718582       0.243555201892185
20        119.552421795271        117.209701063203        108.665087820243    0.000579027546257729   -0.000746923829571714      0.0186447438707481
21         120.99567367159        114.864973734788        108.697392648966     -0.0142590865981065     -0.0109238262807966      -0.619128306293423
22        120.951799800565         117.15729666789        108.655862438315   -0.000935764353639087     0.00159836862483016     -0.0799525712074906
23        111.016635768449        114.810468924781        108.652864095288    0.000374703950022028   -2.71608148430394e-05     -0.0107454891400923
24        111.035492759407        117.165522718535        108.674064746261    -0.00632755168794534     0.00776428157074865      -0.378925837577686
25        121.548419993748        115.953690611127        108.618547533009      0.0092523641100377      0.0107573388943709       0.246107894628035
26        110.353413704876        115.947473109069        108.623577130405    5.46377964206666e-05    -0.00467654609704575       0.119382118761772
27        121.613760934688        118.190487029791        108.661418888864    0.000426342148632409   -0.000432425722666897      0.0296153372009563
28        121.610315220495         113.79483450349        108.653566933795     0.00925124787463799    -0.00336634590377288       0.211945432140922
29        110.379990950705        118.194801687273        108.677030199977    0.000492981074938682   -6.28088800394855e-05         0.1307718422533
30        110.342099136726        113.764703063195        108.634732146466   -0.000345382431722819    3.61317846104849e-05      0.0107648503310416
31        112.606789065475        112.622377043326        108.663776243233   -0.000402764631894904   -0.000215433401178803     -0.0192878773965575
32        112.606289512318        119.363669332928        108.670040011718   -0.000845977718039095    0.000493545805237568      0.0261229697512825
33        119.367023669076        112.608973870755        108.643564136124    0.000589143256184682   -0.000786497498432012      0.0199439414566906
34        119.372910228912        119.356652282159         108.65621402177    0.000251177825640456     0.00047079993835471     -0.0192464820410096
35        114.998890172394        112.605564163406        108.693457599527    0.000142531185801086   -5.20969700023011e-05    -0.00487329194431568
36        114.967106669541           119.413403707        108.668535560859    -4.7410842106968e-05   -3.21005596633124e-05    -0.00561483405248141
37        117.008488275303        112.561521261021        108.647350351281    -0.00040983929578269   -8.18734244823093e-05      0.0104374802523183
38        117.047438514131        119.440094547185          108.6931620566   -0.000178587082901403    4.29523480975135e-05    -0.00443769686385761
39                     100                     100              105.656854                       0                       0                       0
40                     100                     100              102.828427                       0                       0                       0
41                     100                     100                     100                       0                       0                       0
42                     102                     102              105.656854                       0                       0                       0
43                     102                     102              102.828427                       0                       0                       0
44                     102                     102                     100                       0                       0                       0
45                     104                     100              105.656854                       0                       0                       0
46                     104                     100              102.828427                       0                       0                       0
47                     104                     100                     100                       0                       0                       0
48                     106                     102              105.656854                       0                       0                       0
49                     106                     102              102.828427                       0                       0                       0
50                     106                     102                     100                       0                       0                       0
51                     108                     100              105.656854                       0                       0                       0
52                     108                     100              102.828427                       0                       0                       0
53                     108                     100                     100                       0                       0                       0
54                     110                     102              105.656854                       0                       0                       0
55                     110                     102              102.828427                       0                       0                       0
56                     110                     102                     100                       0                       0                       0
57                     112                     100              105.656854                       0                       0                       0
58                     112                     100              102.828427                       0                       0                       0
59                     112                     100                     100                       0                       0                       0
60                     114                     102              105.656854                       0                       0                       0
61                     114                     102              102.828427                       0                       0                       0
62                     114                     102                     100                       0                       0                       0
63                     116                     100              105.656854                       0                       0                       0
64                     116                     100              102.828427                       0                       0                       0
65                     116                     100                     100                       0                       0                       0
66                     118                     102              105.656854                       0                       0                       0
67                     118                     102              102.828427                       0                       0                       0
68                     118                     102                     100                       0                       0                       0
69                     120                     100              105.656854                       0                       0                       0
70                     120                     100              102.828427                       0                       0                       0
71                     120                     100                     100                       0                       0                       0
72                     122                     102              105.656854                       0                       0                       0
73                     122                     102              102.828427                       0                       0                       0
74                     122                     102                     100                       0                       0                       0
75                     124                     100              105.656854                       0                       0                       0
76                     124                     100              102.828427                       0                       0                       0
77                     124                     100                     100                       0                       0                       0
78                     126                     102              105.656854                       0                       0                       0
79                     126                     102              102.828427                       0                       0                       0
80                     126                     102                     100                       0                       0                       0
81                     128                     100              105.656854                       0                       0                       0
82                     128                     100              102.828427                       0                       0                       0
83                     128                     100                     100                       0                       0                       0
84                     130                     102              105.656854                       0                       0                       0
85                     130                     102              102.828427                       0                       0                       0
86                     130                     102                     100                       0                       0                       0
87                     100                     104              105.656854                       0                       0                       0
88                     100                     104              102.828427                       0                       0                       0
89                     100                     104                     100                       0                       0                       0
90                     102                     106              105.656854                       0                       0                       0
91                     102                     106              102.828427                       0                       0                       0
92                     102                     106                     100                       0                       0                       0
93                     104                     104              105.656854                       0                       0                       0
94                     104                     104              102.828427                       0                       0                       0
95                     104                     104                     100                       0                       0                       0
96                     106                     106              105.656854                       0                       0                       0
97                     106                     106              102.828427                       0                       0                       0
98                     106                     106                     100                       0                       0                       0
99                     108                     104              105.656854                       0                       0                       0
100                     108                     104              102.828427                       0                       0                       0
101                     108                     104                     100                       0                       0                       0
102                     110                     106              105.656854                       0                       0                       0
103                     110                     106              102.828427                       0                       0                       0
104                     110                     106                     100                       0                       0                       0
105                     112                     104              105.656854                       0                       0                       0
106                     112                     104              102.828427                       0                       0                       0
107                     112                     104                     100                       0                       0                       0
108                     114                     106              105.656854                       0                       0                       0
109                     114                     106              102.828427                       0                       0                       0
110                     114                     106                     100                       0                       0                       0
111                     116                     104              105.656854                       0                       0                       0
112                     116                     104              102.828427                       0                       0                       0
113                     116                     104                     100                       0                       0                       0
114                     118                     106              105.656854                       0                       0                       0
115                     118                     106              102.828427                       0                       0                       0
116                     118                     106                     100                       0                       0                       0
117                     120                     104              105.656854                       0                       0                       0
118                     120                     104              102.828427                       0                       0                       0
119                     120                     104                     100                       0                       0                       0
120                     122                     106              105.656854                       0                       0                       0
121                     122                     106              102.828427                       0                       0                       0
122                     122                     106                     100                       0                       0                       0
123                     124                     104              105.656854                       0                       0                       0
124                     124                     104              102.828427                       0                       0                       0
125                     124                     104                     100                       0                       0                       0
126                     126                     106              105.656854                       0                       0                       0
127                     126                     106              102.828427                       0                       0                       0
128                     126                     106                     100                       0                       0                       0
129                     128                     104              105.656854                       0                       0                       0
130                     128                     104              102.828427                       0                       0                       0
131                     128                     104                     100                       0                       0                       0
132                     130                     106              105.656854                       0                       0                       0
133                     130                     106              102.828427                       0                       0                       0
134                     130                     106                     100                       0                       0                       0
135                     100                     108              105.656854                       0                       0                       0
136                     100                     108              102.828427                       0                       0                       0
137                     100                     108                     100                       0                       0                       0
138                     102                     110              105.656854                       0                       0                       0
139                     102                     110              102.828427                       0                       0                       0
140                     102                     110                     100                       0                       0                       0
141                     104                     108              105.656854                       0                       0                       0
142                     104                     108              102.828427                       0                       0                       0
143                     104                     108                     100                       0                       0                       0
144                     106                     110              105.656854                       0                       0                       0
145                     106                     110              102.828427                       0                       0                       0
146                     106                     110                     100                       0                       0                       0
147                     108                     108              105.656854                       0                       0                       0
148                     108                     108              102.828427                       0                       0                       0
149                     108                     108                     100                       0                       0                       0
150                     110                     110              105.656854                       0                       0                       0
151                     110                     110              102.828427                       0                       0                       0
152                     110                     110                     100                       0                       0                       0
153                     112                     108              105.656854                       0                       0                       0
154                     112                     108              102.828427                       0                       0                       0
155                     112                     108                     100                       0                       0                       0
156                     114                     110              105.656854                       0                       0                       0
157                     114                     110              102.828427                       0                       0                       0
158                     114                     110                     100                       0                       0                       0
159                     116                     108              105.656854                       0                       0                       0
160                     116                     108              102.828427                       0                       0                       0
161                     116                     108                     100                       0                       0                       0
162                     118                     110              105.656854                       0                       0                       0
163                     118                     110              102.828427                       0                       0                       0
164                     118                     110                     100                       0                       0                       0
165                     120                     108              105.656854                       0                       0                       0
166                     120                     108              102.828427                       0                       0                       0
167                     120                     108                     100                       0                       0                       0
168                     122                     110              105.656854                       0                       0                       0
169                     122                     110              102.828427                       0                       0                       0
170                     122                     110                     100                       0                       0                       0
171                     124                     108              105.656854                       0                       0                       0
172                     124                     108              102.828427                       0                       0                       0
173                     124                     108                     100                       0                       0                       0
174                     126                     110              105.656854                       0                       0                       0
175                     126                     110              102.828427                       0                       0                       0
176                     126                     110                     100                       0                       0                       0
177                     128                     108              105.656854                       0                       0                       0
178                     128                     108              102.828427                       0                       0                       0
179                     128                     108                     100                       0                       0                       0
180                     130                     110              105.656854                       0                       0                       0
181                     130                     110              102.828427                       0                       0                       0
182                     130                     110                     100                       0                       0                       0
183                     100                     112              105.656854                       0                       0                       0
184                     100                     112              102.828427                       0                       0                       0
185                     100                     112                     100                       0                       0                       0
186                     102                     114              105.656854                       0                       0                       0
187                     102                     114              102.828427                       0                       0                       0
188                     102                     114                     100                       0                       0                       0
189                     104                     112              105.656854                       0                       0                       0
190                     104                     112              102.828427                       0                       0                       0
191                     104                     112                     100                       0                       0                       0
192                     106                     114              105.656854                       0                       0                       0
193                     106                     114              102.828427                       0                       0                       0
194                     106                     114                     100                       0                       0                       0
195                     108                     112              105.656854                       0                       0                       0
196                     108                     112              102.828427                       0                       0                       0
197                     108                     112                     100                       0                       0                       0
198                     110                     114              105.656854                       0                       0                       0
199                     110                     114              102.828427                       0                       0                       0
200                     110                     114                     100                       0                       0                       0
201                     112                     112              105.656854                       0                       0                       0