ITEM: TIMESTEP
0
ITEM: NUMBER OF ATOMS
422
ITEM: BOX BOUNDS ff ff ff
0.0000000000000000e+00 2.3200000000000000e+02
0.0000000000000000e+00 2.3200000000000000e+02
0.0000000000000000e+00 2.3200000000000000e+02
ITEM: ATOMS id xu yu zu fx fy fz
1        113.145932193839        115.083520815677              108.656854     -0.0181056194008379      0.0247671223351565      0.0516997578440482
2        118.827484840071        115.089226241634              108.656854      0.0151059151943106      0.0254249643932817      0.0533658156587857
3        117.402344993917        115.087795112765              108.656854     -0.0128018442281717      0.0323255018622852      0.0670067030508488
4        114.571072038949        115.084951942936              108.656854      0.0183735800827858      0.0330205462036624      0.0691865589894958
5        116.701075167769        113.849724850164              108.656854     -0.0268701358381592     0.00161611731537256      0.0590708689066504
6        115.274826990867        113.848292608712              108.656854      0.0353864002176042     0.00143140865610508       0.061981966725104
7        115.272341865028        116.323022205388              108.656854     0.00760871322378748    -0.00169245795318983     0.00730375976350661
8        116.698590041422        116.324454446583              108.656854    0.000207924228223096    -0.00146263828400588     0.00667376345210065
9        114.517756920757        112.648446241175              108.656854      0.0116438108153071     -0.0392149040671575      0.0451956659202687
10        117.460553482731        112.651401403886              108.656854     -0.0304515496075978     -0.0390607115013832      0.0455436481559039
11        114.512863550773        117.521345651893              108.656854      0.0298371559904126     -0.0437942661417236       0.156331992220544
12        117.455660110655        117.524300814179              108.656854     -0.0492896721950154     -0.0428232148357002       0.154041666570664
13        113.127311260236        112.662444587898              108.656854    -0.00552133741634469     -0.0328517549654764      0.0277269468428971
14        113.122448808114        117.504554762274              108.656854     -0.0279209587693504     -0.0320058175636024       0.105880367806545
15        118.850968226168        112.668192293572              108.656854     -0.0102895019814148     -0.0337106420783086      0.0311593402947757
16        118.846105771496         117.51030247058              108.656854      0.0122676687235669     -0.0320951713750029       0.112377590199743
17        112.426795838139         116.29431994364              108.656854     0.00264838437473457     0.00614154472868711     0.00503344099889434
18         112.42922905874        113.871279815063              108.656854     -0.0156334792026058    0.000228285236041299      0.0348215350065724
19        119.546621196692        113.878427112272              108.656854      0.0266362304085014    0.000244850733956327      0.0352461552653962
20        119.544187975028         116.30146724296              108.656854     0.00737781876264239     0.00569988330249087     0.00393440732686025
21        120.955135022624        113.924435085822              108.656854       0.118781831549299       0.145737459324229      0.0448107003455874
22        120.952791362251        116.258288229576              108.656854       0.150275496023843     -0.0325096262235165      0.0307581742722478
23        111.020625673161        113.914458829493              108.656854   -0.000300629623240556       0.145636780433243      0.0699996593010248
24        111.018282013145        116.248311972274              108.656854     -0.0325213599139954     -0.0297395205512945      0.0526925490401505
25        121.586726460739        115.091997078118              108.656854     -0.0619129923835285     0.00942035929757889      0.0476772181799682
26        110.386690574472        115.080749978664              108.656854    -0.00473171048444097     0.00877201364382177      0.0350808687057026
27        121.609196045824        117.285922140926              108.656854      -0.172603072245168      -0.124867766242366       0.134242669083163
28          121.6136022867        112.898121569695              108.656854      -0.174752551300607      -0.123824153970885      0.0723390995228335
29        110.359814750727        117.274625487296              108.656854      0.0234765943232041      -0.132507375613758       0.102277857094831
30         110.36422099026         112.88682491673              108.656854      0.0246573693777812      -0.121225301910089      0.0389852163582988
31        112.599866822243        111.715454800093              108.656854     -0.0158474113209455     0.00765798864230955      0.0178988483950541
32        112.593103500599        118.450483321209              108.656854      -0.017730475048739      0.0185663426513728    -0.00878235157522139
33        119.380313532952        111.722263734631              108.656854      0.0580566960299668     0.00884099992140398      0.0119312497057282
34        119.373550207142        118.457292260389              108.656854      0.0589640337490181      0.0168057437314187     -0.0145089379000848
35        114.962286572867         111.66896056388              108.656854      0.0041503561965205     0.00420318016300133     0.00103191604553949
36        114.955425108682        118.501722146141              108.656854     0.00757276115076776      0.0140866267521091    -0.00903887847311554
37        117.017991924022        111.671024909739              108.656854      0.0224551971156825     0.00438009147532879    0.000240345595938315
38        117.011130457531        118.503786490585              108.656854      0.0184787019120308      0.0136177781242656     -0.0100661690917488
39                     100                     100              105.656854       0.212232413505006       0.214266704144953       -0.97560891517082
40                     100                     100              102.828427       0.431982293341633       0.430208895884783   -0.000483384744838752
41                     100                     100                     100       0.212144189760557       0.213586107218275       0.976422379936968
42                     102                     102              105.656854      -0.344611614474991      -0.348142884440375      -0.278145337833967
43                     102                     102              102.828427     -0.0508619714839813     -0.0479278596607867    0.000913195215002429
44                     102                     102                     100      -0.344460414338398       -0.34670004072159       0.276660161315117
45                     104                     100              105.656854      0.0956034425419958       0.960531664284843       -0.80883734048656
46                     104                     100              102.828427     -0.0635879261439829       0.726375432127713   -0.000411416104948786
47                     104                     100                     100      0.0959984983610357       0.959637760061408       0.809487430646757
48                     106                     102              105.656854      -0.148616160601442      -0.515779516828518      -0.381686267719408
49                     106                     102              102.828427       0.141785216741035      0.0670604123634088    0.000636121178101984
50                     106                     102                     100      -0.149794736056502      -0.514016721346411       0.380728553900301
51                     108                     100              105.656854       0.108855692812285         1.0603077380136      -0.801881294937865
52                     108                     100              102.828427      -0.111000692975721       0.639743611996115    0.000231109310265562
53                     108                     100                     100       0.110220971532929        1.06009202306599       0.801434772604999
54                     110                     102              105.656854      -0.141583556683877      -0.581813557755821      -0.373735565105108
55                     110                     102              102.828427        0.14685384110856       0.134732778729045    -0.00109853005722028
56                     110                     102                     100      -0.144882386270992      -0.582544711034368        0.37562055430038
57                     112                     100              105.656854       0.130838995684727        1.10771529507072      -0.810905216236316
58                     112                     100              102.828427      -0.134860212528899       0.589926392343465     0.00146219887868277
59                     112                     100                     100       0.132457684299393        1.10958372312906       0.808441684720685
60                     114                     102              105.656854      -0.162795850380108      -0.616772483813094      -0.360617098077283
61                     114                     102              102.828427        0.16809351283853       0.173682263262088    -0.00346614731940022
62                     114                     102                     100      -0.164915811384592      -0.622143987512724       0.366317340115945
63                     116                     100              105.656854       0.166590515166296        1.14258607975807      -0.821627625722838
64                     116                     100              102.828427       -0.17077321087197       0.553130403050671     0.00216517067993813
65                     116                     100                     100        0.16658827295838         1.1458029318521       0.818026675224607
66                     118                     102              105.656854      -0.210508211086816      -0.648978620478961      -0.347186402922029
67                     118                     102              102.828427       0.215000083728182       0.206932497123844    -0.00346197218145368
68                     118                     102                     100      -0.208380542263682      -0.654338530718638       0.352879855838585
69                     120                     100              105.656854       0.224039961495477         1.1818021959961      -0.835472380976229
70                     120                     100              102.828427      -0.229228000564558       0.513416480365598     0.00146050428673859
71                     120                     100                     100       0.222422764788247        1.18366552865439       0.833011594848549
72                     122                     102              105.656854      -0.290263246660418      -0.687988502487076      -0.330207185622136
73                     122                     102              102.828427       0.294576946142721        0.24430073710851    -0.00109671057879375
74                     122                     102                     100      -0.286976434692773      -0.688713885896466       0.332089099083756
75                     124                     100              105.656854       0.327018765763009        1.23694989857931      -0.852079806980445
76                     124                     100              102.828427      -0.323511411481951        0.45935938272706    0.000232738503201097
77                     124                     100                     100       0.325658930881756        1.23673642336839       0.851630765421626
78                     126                     102              105.656854      -0.462140932353103      -0.728571896161754      -0.332252790867889
79                     126                     102              102.828427       0.397625322566754       0.282234045509894    0.000629466282305408
80                     126                     102                     100      -0.460969002150083      -0.726821535726156       0.331305500056974
81                     128                     100              105.656854       0.708425915915637        1.34117484211634      -0.754638307520466
82                     128                     100              102.828427      -0.281081620263875       0.395758590654405   -0.000407072717570506
83                     128                     100                     100       0.708032178293763        1.34028766947525       0.755281423167691
84                     130                     102              105.656854       -1.34047518418672      -0.709310977211333      -0.755584802219553
85                     130                     102              102.828427      -0.395899427432538        0.28141233504436    0.000905523117944478
86                     130                     102                     100       -1.34062403096566      -0.707879212421093       0.754111897496472
87                     100                     104              105.656854       0.959481656666959       0.100487893904821      -0.808230460438323
88                     100                     104              102.828427       0.727437302810926     -0.0675345514589275    -0.00130719250538393
89                     100                     104                     100       0.958640876499686      0.0988995378184784       0.810382259388615
90                     102                     106              105.656854      -0.514686221309435      -0.157980335335041      -0.383315738675022
91                     102                     106              102.828427      0.0656591726605658       0.148686256939398     0.00276262206952752
92                     102                     106                     100       -0.51259235305736      -0.154351250344907       0.378888491136642
93                     104                     104              105.656854       0.247403777054872       0.254115896418206      -0.388044739404843
94                     104                     104              102.828427      -0.179960703513989      -0.185111613408222    -0.00184071691366776
95                     104                     104                     100       0.247207508146049       0.250784635669737       0.390957505198993
96                     106                     106              105.656854      -0.233456862915038      -0.247938610617526      -0.506189901439358
97                     106                     106              102.828427       0.224988666989657       0.234605513401554     0.00388848659395331
98                     106                     106                     100      -0.233749457389999      -0.239530607116304       0.499865331479986
99                     108                     104              105.656854       0.171483781634579       0.340234597491852      -0.374710769509358
100                     108                     104              102.828427      -0.175995502408022      -0.269477557551061   -0.000720946326619732
101                     108                     104                     100       0.175363205134718        0.33696266548692       0.375774596676125
102                     110                     106              105.656854      -0.175984130948088      -0.295210506028336      -0.490677653522439
103                     110                     106              102.828427        0.18915453672208       0.286212203856848   -0.000802687869718669
104                     110                     106                     100      -0.189494088763616       -0.29187907348509       0.491983865961497
105                     112                     104              105.656854       0.163481448334733       0.377611924980696      -0.391849509209476
106                     112                     104              102.828427      -0.172136280138385      -0.313610379347442     0.00396600098182038
107                     112                     104                     100       0.170747484935791       0.383047338318979       0.385238459677512
108                     114                     106              105.656854      -0.183374833591061      -0.300131179422288      -0.461950285103137
109                     114                     106              102.828427       0.195253471313589       0.309488677022344     -0.0116394986020447
110                     114                     106                     100       -0.19418896592911      -0.321617626041132        0.48303352551038
111                     116                     104              105.656854        0.19821064887965       0.400595703636105      -0.408559401172605
112                     116                     104              102.828427      -0.203409539273868      -0.342031643464163     0.00723078498343756
113                     116                     104                     100       0.198192544831419       0.413105689704617       0.396588950737592
114                     118                     106              105.656854      -0.245902446724301      -0.322423701143982      -0.446086159219676
115                     118                     106              102.828427       0.245595627469022       0.332417262609168     -0.0116089305669499
116                     118                     106                     100      -0.235024949200691      -0.343819493699844       0.467107831611872
117                     120                     104              105.656854       0.263927785538455       0.434309060541414       -0.42256213569784
118                     120                     104              102.828427      -0.266856319434276      -0.372131235902356     0.00395210956218676
119                     120                     104                     100       0.256672174999382       0.439706062086352       0.415974684736644
120                     122                     106              105.656854      -0.324190194556115      -0.365221789838145      -0.438911096954383
121                     122                     106              102.828427       0.322764987989866       0.358485712379298   -0.000789405725772641
122                     122                     106                     100      -0.310774220247871      -0.361857936792713       0.440195269067816
123                     124                     104              105.656854       0.369734432837497       0.465527326307461      -0.438039644646317
124                     124                     104              102.828427      -0.363662019072197      -0.398685295033711   -0.000714358951096209
125                     124                     104                     100       0.365882635834615        0.46227192400857       0.439092314573757
126                     126                     106              105.656854      -0.465771276928578      -0.372193257248665      -0.443079127412062
127                     126                     106              102.828427       0.401341317959205       0.362832051007893     0.00385833452629923
128                     126                     106                     100      -0.465488398429041      -0.363852797678058       0.436808183089939
129                     128                     104              105.656854       0.727767667857162       0.463595617237967      -0.330197299849424
130                     128                     104              102.828427      -0.282635272620174      -0.397790040097574    -0.00182537411681612
131                     128                     104                     100       0.727961595575139       0.460290943202874       0.333085798897654
132                     130                     106              105.656854       -1.23571636361009      -0.329224304906912      -0.854143050142569
133                     130                     106              102.828427      -0.459201616265725       0.324418026071935     0.00274003206032777
134                     130                     106                     100       -1.23779120009692      -0.325625469008346       0.849751574855779
135                     100                     108              105.656854        1.06397225375493       0.116920635654168      -0.799562681174931
136                     100                     108              102.828427       0.637665170122839      -0.117066411538552    -0.00293897550985681
137                     100                     108                     100          1.060874691217       0.114297158284486       0.804321053037372
138                     102                     110              105.656854      -0.591963646355954      -0.155669388901436      -0.380096241927287
139                     102                     110              102.828427       0.139599858886618        0.15627373190756     0.00630483713858535
140                     102                     110                     100      -0.584059278663099      -0.150457464868403       0.369947117886591
141                     104                     108              105.656854       0.340573994247399       0.191338338172741      -0.369373185309204
142                     104                     108              102.828427      -0.267781248125078      -0.188447367335327    -0.00628646423510688
143                     104                     108                     100       0.334829770060054       0.182390279526542       0.379643318091213
144                     106                     110              105.656854      -0.304420417228557      -0.221352186488316      -0.513084688105978
145                     106                     110              102.828427       0.284006078964738       0.210685257051942      0.0145442316098585
146                     106                     110                     100      -0.288327495207479      -0.199384792533342        0.48420250525379
147                     108                     108              105.656854       0.221425919979551       0.258837767501524      -0.352551036185424
148                     108                     108              102.828427      -0.227430243886982      -0.245980559578462    -0.00767580582608502
149                     108                     108                     100       0.227107930114104       0.236148528496118       0.368940984298349
150                     110                     110              105.656854      -0.161932594185268       -0.26892991964323       -0.50938742451346
151                     110                     110              102.828427        0.21151185785224       0.243828612708907     0.00828823600038195
152                     110                     110                     100      -0.220183351243307      -0.232619210967408       0.474859304645414
153                     112                     108              105.656854       0.161260838320931       0.255015550010378      -0.397770355806189
154                     112                     108              102.828427      -0.193362045780499      -0.268986420868831      0.0101683156676747
155                     112                     108                     100       0.199625773589468       0.267236596622857       0.377134025884573
156                     114                     110              105.656854      -0.166101635685056      -0.179987193451537      -0.351235609247203
157                     114                     110              102.828427        0.20547287211663       0.246846068965688     -0.0326498045666449
158                     114                     110                     100      -0.212275105847603      -0.249516645471848       0.471870574823777
159                     116                     108              105.656854       0.220318584007303       0.238911407924042      -0.440047931094978
160                     116                     108              102.828427      -0.226134494243399      -0.279693937133204      0.0254000096871796
161                     116                     108                     100       0.220195344660222       0.285696747832349       0.386692426835338
162                     118                     110              105.656854      -0.297113292727294      -0.191196572299293      -0.334254313270288
163                     118                     110              102.828427       0.270001677909539       0.258214916877995     -0.0325088789400487
164                     118                     110                     100      -0.250437927812429      -0.260492614911598       0.454478046934191
165                     120                     108              105.656854        0.31371000146996       0.288900149657889      -0.432374333768931
166                     120                     108              102.828427      -0.294831632024992      -0.303710239180839      0.0100732633969548
167                     120                     108                     100       0.275430692029339       0.300839271874446       0.411971502654146
168                     122                     110              105.656854      -0.373897034164046      -0.302691587721926      -0.453013053107341
169                     122                     110              102.828427       0.338019482456923       0.278455854381613     0.00836854734936131
170                     122                     110                     100      -0.316562516137458       -0.26612430663219       0.418404837409303
171                     124                     108              105.656854       0.375363379475674       0.328312431186752      -0.425022890204251
172                     124                     108              102.828427      -0.369487731972535      -0.317873682684426    -0.00763753121707852
173                     124                     108                     100       0.369802488580868        0.30578408041808        0.44126999922647
174                     126                     110              105.656854      -0.431109961017796      -0.277085936665166      -0.441486226919288
175                     126                     110              102.828427       0.379617013718761       0.268395653342478      0.0144371695375855
176                     126                     110                     100      -0.447093927113918      -0.255299022278306       0.412907851057826
177                     128                     108              105.656854       0.685979257697395       0.295392623780096      -0.324702091941423
178                     128                     108              102.828427      -0.245995092506016       -0.29595202894411    -0.00623444627574967
179                     128                     108                     100       0.691672489124396       0.286524349033182       0.334880597593365
180                     130                     110              105.656854       -1.17755377416814      -0.228004527145501      -0.840052435881258
181                     130                     110              102.828427       -0.51369944612886       0.231018701480448     0.00625347558283036
182                     130                     110                     100       -1.18538591469961      -0.222833472341644        0.82998803383297
183                     100                     112              105.656854        1.11943005765024       0.137540259251141      -0.806036385703355
184                     100                     112              102.828427       0.582807697317195      -0.139703463832952    -0.00485305162710857
185                     100                     112                     100        1.11302038010751       0.135551952525753       0.813842625903036
186                     102                     114              105.656854      -0.640183556692816      -0.168785421782346      -0.371978124681386
187                     102                     114              102.828427       0.185630379049682       0.172064335740286     0.00916656170080699
188                     102                     114                     100      -0.626814662359659      -0.167221856025337       0.357129289687271
189                     104                     112              105.656854       0.405182778917731       0.185619662211147      -0.372337933541324
190                     104                     112              102.828427        -0.3233367286171      -0.184765235467102     -0.0134646927673831
191                     104                     112                     100       0.385127937039796       0.177196852642804       0.395848720351669
192                     106                     114              105.656854      -0.356475396665654      -0.202935048777466      -0.518815568821921
193                     106                     114              102.828427       0.322266664341827       0.205835000699375      0.0246684915478074
194                     106                     114                     100      -0.322516205480233      -0.199035342287034       0.465981643510028
195                     108                     112              105.656854       0.294181836138854       0.244836640287394      -0.282291529782934
196                     108                     112              102.828427      -0.261203472176319      -0.221449777084459     -0.0254639950393244
197                     108                     112                     100       0.260693396567059       0.210683926736844       0.390229516650594
198                     110                     114              105.656854      -0.145764578119439      -0.169752455989355      -0.718140897186538
199                     110                     114              102.828427       0.221429732601901         0.2252534956752       0.015247250319364
200                     110                     114                     100       -0.23881907242451      -0.220097196601664       0.456413538066485
201                     112                     112              105.656854      0.0728002967871922       0.219419160899272      -0.430087208690678