ITEM: TIMESTEP
0
ITEM: NUMBER OF ATOMS
422
ITEM: BOX BOUNDS pp pp pp
0.0000000000000000e+00 3.2000000000000000e+01
0.0000000000000000e+00 3.2000000000000000e+01
0.0000000000000000e+00 3.2000000000000000e+01
ITEM: ATOMS id xu yu zu fx fy fz
1        13.9459321938386        15.9835208156773                 8.65685   -0.000634121016631711    0.000867572618998946      0.0188903309273153
2        19.6274848400711        15.9892262416344                 8.65685     0.00231284729451023    0.000102675558766863    -0.00314262132027823
3         18.202344993917         15.987795112765                 8.65685     0.00230923980857944    0.000627604015293645      0.0181396048647665
4         15.371072038949        15.9849519429358                 8.65685     0.00392349405123382    0.000234109614216896   -0.000691333430442452
5        17.5010751677692        14.7497248501637                 8.65685      -0.023171012692207      0.0348286432139972       0.116254657753347
6        16.0748269908674        14.7482926087119                 8.65685    -0.00277348943120845      0.0059821401326958      0.0102408331921818
7        16.0723418650276        17.2230222053877                 8.65685    -0.00260759277045913    -0.00601085132722892     0.00965196228215569
8        17.4985900414216        17.2244544465825                 8.65685      -0.022681355800439     -0.0350867274722182       0.112828685695045
9        15.3177569207574        13.5484462411751                 8.65685      0.0288932587535802     -0.0104440886824074      0.0507907773884155
10        18.2605534827313        13.5514014038861                 8.65685      0.0170131786508192     -0.0293122575727101       0.170342845976173
11        15.3128635507729         18.421345651893                 8.65685      0.0295357033178197     0.00998732889617755      0.0523583672443827
12        18.2556601106552        18.4243008141789                 8.65685      0.0169457632181396      0.0281410365201724       0.173185903645541
13        13.9273112602358        13.5624445878976                 8.65685    -0.00496665026225368     -0.0299278168102945        0.17915365428038
14        13.9224488081137        18.4045547622743                 8.65685    -0.00539047867972781      0.0281449568495394       0.182559034445696
15         19.650968226168        13.5681922935721                 8.65685      0.0160691286861793    -0.00597158274369975      0.0251461238697435
16        19.6461057714963        18.4103024705805                 8.65685      0.0164684387228767     0.00578496863039493      0.0258459661994772
17         13.226795838139        17.1943199436399                 8.65685     -0.0272988424214901     -0.0284395459457058       0.084808619546914
18        13.2292290587396        14.7712798150634                 8.65685     -0.0282252469019309      0.0282437302125596      0.0884891033775421
19        20.3466211966922        14.7784271122721                 8.65685     -0.0122474735332479     0.00805161460197719      0.0165450215524681
20        20.3441879750283        17.2014672429596                 8.65685     -0.0119211214683896    -0.00805055164617935      0.0159045942294607
21        21.7551350226241        14.8244350858224                 8.65685     -0.0118849348643551      0.0400284965731599       0.122326755873923
22        21.7527913622507        17.1582882295758                 8.65685     -0.0117753937281947     -0.0400964498689034       0.119751044653958
23        11.8206256731611        14.8144588294926                 8.65685      0.0061977705756274     0.00652082403393745      0.0104800131636657
24        11.8182820131454        17.1483119722736                 8.65685     0.00603255438160838    -0.00653651595178892     0.00972776465833569
25        22.3867264607395        15.9919970781177                 8.65685     0.00145671376075791    0.000155460410379132    -0.00198356614832817
26        11.1866905744716        15.9807499786644                 8.65685     0.00162224296863524    0.000156871734209681    -0.00764199467793485
27         22.409196045824        18.1859221409264                 8.65685      0.0115696500026927     0.00524706223449318      0.0671357926130277
28        22.4136022867001        13.7981215696947                 8.65685      0.0116200229415123    -0.00566130508233113      0.0666151550024579
29        11.1598147507275        18.1746254872963                 8.65685      0.0152287067006446     0.00228953104104069      0.0239634884273672
30        11.1642209902605        13.7868249167297                 8.65685      0.0150338189326253    -0.00274966559987971      0.0233596179969561
31        13.3998668222426        12.6154548000933                 8.65685   -0.000927389483920605    -0.00244587482130824    -0.00570469101272588
32        13.3931035005993        19.3504833212092                 8.65685    -0.00101097247042189      0.0025485506512595    -0.00537929352550595
33        20.1803135329519        12.6222637346313                 8.65685   -0.000163166581267058   -3.92067892096463e-05     -0.0100428864526631
34        20.1735502071424         19.357292260389                 8.65685   -0.000168861942282647    4.17004470681659e-05     -0.0100262543167014
35        15.7622865728669        12.5689605638796                 8.65685     0.00017654024295961   -6.05105281540593e-05     -0.0100444300262591
36         15.755425108682        19.4017221461408                 8.65685     0.00020433760295685    7.56754952570549e-05     -0.0100022597677385
37        17.8179919240215        12.5710249097393                 8.65685   -0.000327849062084277     -0.0029244234983152    -0.00487120787759119
38         17.811130457531        19.4037864905846                 8.65685   -0.000360416958614884     0.00303477348317036    -0.00457311075749786
39                       0                       0                5.656854                       0                       0                       0
40                       0                       0                2.828427                       0                       0                       0
41                       0                       0                       0                       0                       0                       0
42                       2                       2                5.656854                       0                       0                       0
43                       2                       2                2.828427                       0                       0                       0
44                       2                       2                       0                       0                       0                       0
45                       4                       0                5.656854                       0                       0                       0
46                       4                       0                2.828427                       0                       0                       0
47                       4                       0                       0                       0                       0                       0
48                       6                       2                5.656854    1.05311970546087e-08    1.94271694702875e-08    5.00486259414402e-09
49                       6                       2                2.828427    2.77845399353626e-10    5.37248968179178e-10    2.74608722746077e-10
50                       6                       2                       0                       0                       0                       0
51                       8                       0                5.656854    3.20492352472957e-10    2.33635617254832e-11    2.23534748868331e-10
52                       8                       0                2.828427    3.00674719326216e-10    1.36016560640899e-11      3.247366933883e-10
53                       8                       0                       0                       0                       0                       0
54                      10                       2                5.656854    6.47686860437281e-08    2.14875041961251e-07    5.65631226715229e-08
55                      10                       2                2.828427    2.34757011531099e-09    7.86796624841349e-09      4.026131132572e-09
56                      10                       2                       0    9.36195888900269e-10    3.24883553589622e-09    2.51385410224229e-09
57                      12                       0                5.656854    1.27340695033533e-09    1.71569822079889e-10    1.74817123192393e-09
58                      12                       0                2.828427    1.15357539396115e-09    7.89897282763594e-10    3.53156321583338e-09
59                      12                       0                       0                       0                       0                       0
60                      14                       2                5.656854     6.5094059228883e-08    6.72866230985457e-07    1.80273666001833e-07
61                      14                       2                2.828427    2.31966214886366e-09    2.35205904203548e-08    1.22086883724539e-08
62                      14                       2                       0    5.85768647415131e-10    9.50734232499767e-09    7.43421313180684e-09
63                      16                       0                5.656854    3.20470324095133e-10    2.89955231855105e-10    3.30311291340703e-09
64                      16                       0                2.828427    1.90601833595678e-10     3.4709784100483e-10    8.13821851735606e-09
65                      16                       0                       0                       0                       0                       0
66                      18                       2                5.656854   -3.04402011091888e-08    7.81346278388291e-07    2.09832562866783e-07
67                      18                       2                2.828427   -1.08432654100933e-09    2.72293975467907e-08     1.4166247288383e-08
68                      18                       2                       0   -3.62912490800024e-10    1.14204569123304e-08     8.9570629312078e-09
69                      20                       0                5.656854   -1.16336503323544e-09     1.9121474259682e-10    2.53985142524607e-09
70                      20                       0                2.828427    -1.3113248824875e-09    2.12841539703357e-10    5.92895889691514e-09
71                      20                       0                       0                       0                       0                       0
72                      22                       2                5.656854   -8.39977786510953e-08    3.88474224735956e-07    1.03035409458789e-07
73                      22                       2                2.828427   -2.97536490254586e-09    1.38380870747065e-08    7.12669382828503e-09
74                      22                       2                       0   -1.22811959197388e-09    6.04612003796926e-09    4.67855750505462e-09
75                      24                       0                5.656854   -8.07121960740039e-10    4.39147139976557e-11    6.61742459741691e-10
76                      24                       0                2.828427   -4.62326018718771e-10    2.23666962497488e-11    7.04844469320503e-10
77                      24                       0                       0                       0                       0                       0
78                      26                       2                5.656854   -2.60102828966757e-08    5.85445405540483e-08    1.51742093624014e-08
79                      26                       2                2.828427   -9.14340686945456e-10    2.10013434117465e-09    1.06462044351733e-09
80                      26                       2                       0   -1.71109763964949e-10     3.1231459816565e-10    2.54527725602941e-10
81                      28                       0                5.656854                       0                       0                       0
82                      28                       0                2.828427                       0                       0                       0
83                      28                       0                       0                       0                       0                       0
84                      30                       2                5.656854   -1.31374150397035e-09    1.87963746083884e-09    4.88461516929677e-10
85                      30                       2                2.828427                       0                       0                       0
86                      30                       2                       0                       0                       0                       0
87                       0                       4                5.656854   -4.09246712621543e-10    4.01623404017918e-10    1.24703838978309e-10
88                       0                       4                2.828427   -5.15355195785076e-10    5.26737259489085e-10    3.13330217054942e-10
89                       0                       4                       0                       0                       0                       0
90                       2                       6                5.656854    4.05981733707799e-08     3.6516468480209e-08    1.36087299002865e-08
91                       2                       6                2.828427    1.53043117347451e-09     1.3081437940865e-09    9.43393133071554e-10
92                       2                       6                       0    5.56619768835594e-10    4.72958987972871e-10    5.25802886133527e-10
93                       4                       4                5.656854    5.72196091549914e-09    7.19799161947643e-09    2.18289128064457e-09
94                       4                       4                2.828427    6.81073714949775e-09     8.5077768276961e-09    5.06250502329118e-09
95                       4                       4                       0    6.73201860571565e-11    9.19640635316451e-11    8.13460044659658e-11
96                       6                       6                5.656854    1.84312149467509e-06    2.44101114942189e-06    9.24493916433202e-07
97                       6                       6                2.828427    5.42786055814864e-08    7.11260053920265e-08    5.19875719595643e-08
98                       6                       6                       0    2.24619217259736e-08    2.89123542267876e-08    3.15059660067885e-08
99                       8                       4                5.656854    8.93262464637856e-08    1.85422389733396e-07    5.76144310939371e-08
100                       8                       4                2.828427    9.38940332430706e-08    1.93771855627864e-07     1.1652761875004e-07
101                       8                       4                       0    1.35542158744464e-09    2.75186333583106e-09    2.46772987403138e-09
102                      10                       6                5.656854    1.72431736859348e-05    4.34131369546121e-05    1.72488837746653e-05
103                      10                       6                2.828427    3.77103850804763e-07    9.32939774228603e-07    7.10254272226162e-07
104                      10                       6                       0    1.19347241925728e-07    2.89931963022553e-07    3.22995737562448e-07
105                      12                       4                5.656854     2.6980159453667e-07    1.25709525899172e-06    4.04660017395202e-07
106                      12                       4                2.828427    2.45071386560304e-07    1.12008669924656e-06    6.94032853299601e-07
107                      12                       4                       0    3.01456658276449e-09    1.37786009982293e-08    1.25895576350943e-08
108                      14                       6                5.656854    1.79336164221167e-05    0.000166687077145463      6.904384249301e-05
109                      14                       6                2.828427    3.55999467195999e-07    3.03402224760906e-06    2.39561439040486e-06
110                      14                       6                       0    1.04372596937658e-07    8.13132916349805e-07    9.33891615984385e-07
111                      16                       4                5.656854    5.38772524046556e-08    2.31333963469899e-06    7.55508068153512e-07
112                      16                       4                2.828427    5.08195155103684e-08    1.98126496913734e-06    1.24451076026425e-06
113                      16                       4                       0    5.89543182908822e-10    2.35417369135393e-08    2.17697864300727e-08
114                      18                       6                5.656854   -6.93027951573388e-06    0.000191443592821482    7.97425627973072e-05
115                      18                       6                2.828427   -1.48274978486674e-07    3.46861588192014e-06    2.75378768228683e-06
116                      18                       6                       0   -4.62086592236407e-08    9.24299185044954e-07    1.06690214231052e-06
117                      20                       4                5.656854   -2.26714724835166e-07    1.82162043502663e-06     5.9108598787469e-07
118                      20                       4                2.828427   -2.05839614079867e-07    1.57833920676566e-06    9.85023159545027e-07
119                      20                       4                       0   -2.52860042894973e-09    1.90012546077617e-08    1.74627088469108e-08
120                      22                       6                5.656854   -2.44706691723444e-05    8.84095035908643e-05    3.58758756329219e-05
121                      22                       6                2.828427   -4.90626599267762e-07    1.73508554628141e-06    1.34406172489286e-06
122                      22                       6                       0   -1.44308315949346e-07     4.9718674280228e-07    5.61547043063261e-07
123                      24                       4                5.656854   -1.71250455631654e-07    4.59314987826984e-07     1.4483678141928e-07
124                      24                       4                2.828427   -1.68890803060634e-07    4.49030912371003e-07    2.73060079949493e-07
125                      24                       4                       0   -2.18768946322014e-09    5.88925642989962e-09    5.31806083769218e-09
126                      26                       6                5.656854    -5.4064383013778e-06    8.98656088369664e-06    3.45241920232636e-06
127                      26                       6                2.828427   -1.40671080949329e-07    2.29959483351811e-07    1.70299740530495e-07
128                      26                       6                       0   -5.23839030803106e-08    8.42169844903765e-08    9.20354284931578e-08
129                      28                       4                5.656854   -1.99855927449579e-08    3.00125872122229e-08    9.15379377907126e-09
130                      28                       4                2.828427   -2.40016173439924e-08    3.56863993717013e-08    2.11560220962632e-08
131                      28                       4                       0   -2.27089247337202e-10    3.50256719394375e-10    3.19259129122214e-10
132                      30                       6                5.656854   -2.17690161862153e-07    2.15022667499275e-07     8.0085242724686e-08
133                      30                       6                2.828427   -7.49240347915264e-09    7.38417516324193e-09    5.35311907097516e-09
134                      30                       6                       0   -3.14832652692641e-09    3.12695153211567e-09    3.41362481209183e-09
135                       0                       8                5.656854   -2.45271720832897e-08    1.97823309348303e-08    9.47753773140345e-09
136                       0                       8                2.828427   -2.86431050286569e-08    2.36981693004642e-08    2.19845994288251e-08
137                       0                       8                       0   -2.88970322706992e-10    1.74777336722066e-10    2.60950235212484e-10
138                       2                      10                5.656854    1.14317212314809e-06     5.7377578976696e-07    3.86929893889989e-07
139                       2                      10                2.828427    3.59505227984891e-08    1.83978116156992e-08    2.37304722282093e-08
140                       2                      10                       0    1.54479441444947e-08    7.80152414909001e-09     1.4972274509904e-08
141                       4                       8                5.656854    4.53007726285803e-07    3.65173675571633e-07    1.78024699913318e-07
142                       4                       8                2.828427    4.14988540211655e-07    3.34369678326815e-07    3.13368157259066e-07
143                       4                       8                       0    5.15424714185873e-09    4.15505144877731e-09    5.75556731134044e-09
144                       6                      10                5.656854    0.000129783161319769    9.71472611941171e-05    6.94591814311403e-05
145                       6                      10                2.828427    2.14671569996988e-06    1.60815347100614e-06    2.16984799079645e-06
146                       6                      10                       0    5.33443022363488e-07    3.99567512886885e-07    7.75860542680193e-07
147                       8                       8                5.656854    1.46409531463727e-05    2.13044567555304e-05    1.08309336803474e-05
148                       8                       8                2.828427    8.30427181893151e-06    1.17395543366422e-05    1.14186894924496e-05
149                       8                       8                       0     6.7750361406553e-08    9.32228061150928e-08    1.32197974426905e-07
150                      10                      10                5.656854     0.00221852810406018     0.00372461075063147     0.00287227122649362
151                      10                      10                2.828427    2.03555490416898e-05    3.23354081101616e-05    4.65350638009194e-05
152                      10                      10                       0    3.12250492369071e-06    4.69463512284756e-06    9.60001807646429e-06
153                      12                       8                5.656854    6.45391474757803e-05    0.000223236507252214     0.00012366656704111
154                      12                       8                2.828427    2.51676436853684e-05    8.45836995730174e-05    8.78016699154232e-05
155                      12                       8                       0    1.54270653576501e-07    4.95511066785564e-07    7.37686920629797e-07
156                      14                      10                5.656854      0.0020292413112172      0.0141189670491361       0.012235381861583
157                      14                      10                2.828427    1.61169583679048e-05     0.00010404758481969    0.000164531779941094
158                      14                      10                       0    2.27324181475555e-06    1.25078170019695e-05    2.73240415742953e-05
159                      16                       8                5.656854    6.50497005589828e-06    0.000421375421880577     0.00024194930369614
160                      16                       8                2.828427    3.57583237945686e-06    0.000146958840347233    0.000157658816673579
161                      16                       8                       0    2.71136706468641e-08     8.1025570302433e-07      1.240391165762e-06
162                      18                      10                5.656854   -0.000373222803490845      0.0154472997031664      0.0135649816881619
163                      18                      10                2.828427   -4.59230819318998e-06    0.000114118980458739     0.00018280687426501
164                      18                      10                       0   -8.75066105782293e-07    1.38077846592011e-05    3.05086384613843e-05
165                      20                       8                5.656854   -5.10142223353165e-05     0.00034345015932463     0.00019432865576127
166                      20                       8                2.828427    -1.9744248513199e-05    0.000120708146210184    0.000127703291444978
167                      20                       8                       0   -1.20821331830038e-07     6.7108102233776e-07     1.0145786005298e-06
168                      22                      10                5.656854    -0.00328013386162627     0.00797869368980085     0.00650334180408248
169                      22                      10                2.828427    -2.6261436000088e-05    6.16543937062108e-05     9.2376294772662e-05
170                      22                      10                       0   -3.63128485029133e-06    8.03334611320266e-06    1.68851220829968e-05
171                      24                       8                5.656854   -3.37476946409442e-05    6.58842908312034e-05    3.44505375930997e-05
172                      24                       8                2.828427   -1.63239257635548e-05    3.07523032335874e-05    3.05889968838899e-05
173                      24                       8                       0   -1.16431876151316e-07    2.11547752985247e-07    3.05029250694404e-07
174                      26                      10                5.656854   -0.000543142995553339    0.000537609525473076    0.000392756616823528
175                      26                      10                2.828427   -6.76701159457263e-06    6.56048848582133e-06    9.02141321617175e-06
176                      26                      10                       0   -1.33731335589141e-06    1.27125708225999e-06    2.50652347518047e-06
177                      28                       8                5.656854   -2.15468419204421e-06    2.12801356911556e-06    1.05058925873752e-06
178                      28                       8                2.828427   -1.63302915639624e-06    1.59924884927959e-06     1.5150699602692e-06
179                      28                       8                       0   -1.73507476007784e-08    1.68842861444526e-08    2.34234100824692e-08
180                      30                      10                5.656854   -8.43411156910085e-06    4.61600896991191e-06    3.17988659340136e-06
181                      30                      10                2.828427   -2.13361885050595e-07    1.18016584669308e-07    1.54497578014749e-07
182                      30                      10                       0   -7.73028847384832e-08    4.34873468578437e-08    8.23511892222519e-08
183                       0                      12                5.656854   -3.00288014369199e-07    1.05036379606465e-07    1.12431180912401e-07
184                       0                      12                2.828427   -2.88987275796467e-07    1.07820808818489e-07     2.1813529141417e-07
185                       0                      12                       0   -3.81519539833896e-09    1.46848667578392e-09    4.35164288029953e-09
186                       2                      14                5.656854    6.12154735543615e-06    8.77628634501689e-07    2.04700637583578e-06
187                       2                      14                2.828427    1.68132512251287e-07    2.57151633411815e-08     1.1073319425374e-07
188                       2                      14                       0    6.75488467550082e-08    1.03323571326339e-08    6.44446636469416e-08
189                       4                      12                5.656854    8.56274648005094e-06     2.9819759315055e-06     3.4198866164805e-06
190                       4                      12                2.828427    5.61414674403908e-06    2.02648988510352e-06    4.29976785390393e-06
191                       4                      12                       0    5.19049201089751e-08    1.93704662220561e-08    5.81095497156396e-08
192                       6                      14                5.656854     0.00126274360024794    0.000235008508632951     0.00068406695925358
193                       6                      14                2.828427    1.46278012393792e-05    3.05944377100886e-06     1.5016452540771e-05
194                       6                      14                       0    2.64932038256481e-06    5.99685883420278e-07    3.91396287525301e-06
195                       8                      12                5.656854    0.000752931414981786    0.000483209184915518     0.00062382928708704
196                       8                      12                2.828427    0.000187428260139016     0.00012239911246315    0.000281631396418693
197                       8                      12                       0    8.25699587262027e-07    5.41792918945363e-07    1.71856360054527e-06
198                      10                      14                5.656854    -0.00796099932818007     0.00526387055055438       -0.03406124491962
199                      10                      14                2.828427    0.000165417701319045    7.81501661894215e-05    0.000437644759161308
200                      10                      14                       0    1.59716622361118e-05    7.63607105009557e-06    5.42376846624904e-05
201                      12                      12                5.656854     0.00269252348439182     0.00510637958301944     0.00734304308592235