ITEM: TIMESTEP
0
ITEM: NUMBER OF ATOMS
422
ITEM: BOX BOUNDS ff ff ff
0.0000000000000000e+00 2.3200000000000000e+02
0.0000000000000000e+00 2.3200000000000000e+02
0.0000000000000000e+00 2.3200000000000000e+02
ITEM: ATOMS id xu yu zu fx fy fz
1        113.099847680202         115.93743630204        108.610769486363         1.2275245358862        2.48992818335688     0.00550370933092155
2        118.831994518093        115.993735919656        108.661363678021        1.69894099634186       0.323866881016414    -0.00222375777553388
3        117.394142794662         115.97959291351        108.648651800745       0.356545755601364       0.801607581350917     -0.0433101078262349
4        114.617537530849        116.031417434836          108.7033194919      -0.394892056129281       -2.20982428824266     -0.0115414327248481
5        116.657720578061        114.706370260456        108.613499410292        2.61632055272309        2.95910769601327      -0.145966637219276
6        115.292649648058        114.766115265903        108.674676657191       0.808801237661226       -1.14851950901772       0.134814686959032
7        115.289863763508        117.240544103868        108.674375898481       -1.19172509520574      -0.536203857865406   -0.000425675830070683
8        116.719485639332        117.245350044493         108.67774959791      -0.156894125288389      -0.651600406949602       -0.02842577958281
9        114.502107360741        113.532796681159        108.641204439984       -0.56117743152584       0.486970792980891     0.00288956270752016
10         117.49425508182        113.585103002975        108.690555599089       -2.04933759502661       -3.29949471052688       0.164396206462447
11        114.499591464991        118.408073566111        108.643581914218       0.364865400941775        1.61851774292325      -0.046001616023831
12        117.479832581566         118.44847328509        108.681026470911      -0.614127653737338      0.0449471290778001    -0.00460565430975401
13        113.171030359073        113.606163686735        108.700573098837       0.106576964597045      -0.881417923846197      0.0158003825782778
14         113.12274816435        118.404854118511        108.657153356236       0.216070890669986      -0.472489136255907     0.00261032871519561
15        118.848438575236         113.56566264264        108.654324349068       0.740213671615949        1.59232010970809     -0.0323579487297037
16        118.858862649072        118.423059348156        108.669610877576       0.693157302112705       0.751340865851808     -0.0271272329420193
17        112.420059392814        117.187583498315        108.650117554675       -1.20661248792048       -2.28925600579923     -0.0683207711915275
18        112.466616626296         114.80866738262        108.694241567557       0.290959329573722       -1.70095242245291     -0.0203085393709348
19        119.585816609535        114.817622525115        108.696049412843       -1.68140355333291       -3.47523474753255       0.213698842077182
20        119.570167139743        117.227446407675        108.682833164715       -1.29665299865228       -1.78605428578441     0.00730846360899532
21        120.908804662632         114.77810472583        108.610523640007        3.89515687011539        4.65289089057932      -0.197738039699467
22        120.932403022247        117.137899889572        108.636465659996        1.23250625130743        1.67375594995371    -0.00228731153104465
23        110.978300402533        114.772133558864        108.614528729372        2.79761878982535        3.11077761108876      -0.143734088929801
24        110.971250241555        117.101280200684         108.60982222841         2.7199417631946         1.1050852235725      -0.199874794765009
25        121.581027108116        115.986297725495        108.651154647377        -1.5933309908252      0.0762742179472542      -0.171359283955901
26        110.412888608848        116.006948013041        108.683052034376       -4.69742123229984      -0.367544488015049       0.312238478651473
27        121.627967731232        118.204693826334        108.675625685408      -0.403415257867452       0.263983929295319     -0.0259202777718484
28        121.653198040275        113.837717323269        108.696449753575       -2.96266836173627       -2.33223603298418       0.141811643845241
29        110.345632415904        118.160443152473        108.642671665177      -0.976052455093567       -0.57726724769796      0.0238746061763553
30        110.326630622501         113.74923454897         108.61926363224      0.0203728691538015     -0.0125305934864442       0.096908321491336
31        112.645730492444        112.661318470294        108.702717670201      -0.324898130870038       0.180667180927768      0.0156566733169589
32        112.612818857215        119.370198677825        108.676569356615      -0.311291295809098      -0.164459773919794     0.00122544240729542
33        119.422093138638        112.664043340318        108.698633605687      -0.424640361901399      -0.270085483247368     0.00186408987550883
34        119.391729641301        119.375471694548        108.675033434159       0.128216398482437     -0.0717261762752534    -0.00173179747332263
35        114.941418391225        112.548092382237        108.635985818358       0.446643700104403       0.199286500365095     -0.0043631204148879
36        114.924548397023        119.370845434482        108.625977288341       0.606110188216265      -0.267512113932178    0.000999073520187304
37        117.015555805236        112.568588790953        108.654417881214      -0.243715240532027       0.113637939722729      0.0318705399809713
38        116.969293724717         119.36194975777        108.615017267186       0.123712855629174      0.0694427780999183     0.00415281636292753
39                     100                     100              105.656854                       0                       0                       0
40                     100                     100              102.828427                       0                       0                       0
41                     100                     100                     100                       0                       0                       0
42                     102                     102              105.656854                       0                       0                       0
43                     102                     102              102.828427                       0                       0                       0
44                     102                     102                     100                       0                       0                       0
45                     104                     100              105.656854                       0                       0                       0
46                     104                     100              102.828427                       0                       0                       0
47                     104                     100                     100                       0                       0                       0
48                     106                     102              105.656854                       0                       0                       0
49                     106                     102              102.828427                       0                       0                       0
50                     106                     102                     100                       0                       0                       0
51                     108                     100              105.656854                       0                       0                       0
52                     108                     100              102.828427                       0                       0                       0
53                     108                     100                     100                       0                       0                       0
54                     110                     102              105.656854                       0                       0                       0
55                     110                     102              102.828427                       0                       0                       0
56                     110                     102                     100                       0                       0                       0
57                     112                     100              105.656854                       0                       0                       0
58                     112                     100              102.828427                       0                       0                       0
59                     112                     100                     100                       0                       0                       0
60                     114                     102              105.656854                       0                       0                       0
61                     114                     102              102.828427                       0                       0                       0
62                     114                     102                     100                       0                       0                       0
63                     116                     100              105.656854                       0                       0                       0
64                     116                     100              102.828427                       0                       0                       0
65                     116                     100                     100                       0                       0                       0
66                     118                     102              105.656854                       0                       0                       0
67                     118                     102              102.828427                       0                       0                       0
68                     118                     102                     100                       0                       0                       0
69                     120                     100              105.656854                       0                       0                       0
70                     120                     100              102.828427                       0                       0                       0
71                     120                     100                     100                       0                       0                       0
72                     122                     102              105.656854                       0                       0                       0
73                     122                     102              102.828427                       0                       0                       0
74                     122                     102                     100                       0                       0                       0
75                     124                     100              105.656854                       0                       0                       0
76                     124                     100              102.828427                       0                       0                       0
77                     124                     100                     100                       0                       0                       0
78                     126                     102              105.656854                       0                       0                       0
79                     126                     102              102.828427                       0                       0                       0
80                     126                     102                     100                       0                       0                       0
81                     128                     100              105.656854                       0                       0                       0
82                     128                     100              102.828427                       0                       0                       0
83                     128                     100                     100                       0                       0                       0
84                     130                     102              105.656854                       0                       0                       0
85                     130                     102              102.828427                       0                       0                       0
86                     130                     102                     100                       0                       0                       0
87                     100                     104              105.656854                       0                       0                       0
88                     100                     104              102.828427                       0                       0                       0
89                     100                     104                     100                       0                       0                       0
90                     102                     106              105.656854                       0                       0                       0
91                     102                     106              102.828427                       0                       0                       0
92                     102                     106                     100                       0                       0                       0
93                     104                     104              105.656854                       0                       0                       0
94                     104                     104              102.828427                       0                       0                       0
95                     104                     104                     100                       0                       0                       0
96                     106                     106              105.656854                       0                       0                       0
97                     106                     106              102.828427                       0                       0                       0
98                     106                     106                     100                       0                       0                       0
99                     108                     104              105.656854                       0                       0                       0
100                     108                     104              102.828427                       0                       0                       0
101                     108                     104                     100                       0                       0                       0
102                     110                     106              105.656854                       0                       0                       0
103                     110                     106              102.828427                       0                       0                       0
104                     110                     106                     100                       0                       0                       0
105                     112                     104              105.656854                       0                       0                       0
106                     112                     104              102.828427                       0                       0                       0
107                     112                     104                     100                       0                       0                       0
108                     114                     106              105.656854                       0                       0                       0
109                     114                     106              102.828427                       0                       0                       0
110                     114                     106                     100                       0                       0                       0
111                     116                     104              105.656854                       0                       0                       0
112                     116                     104              102.828427                       0                       0                       0
113                     116                     104                     100                       0                       0                       0
114                     118                     106              105.656854                       0                       0                       0
115                     118                     106              102.828427                       0                       0                       0
116                     118                     106                     100                       0                       0                       0
117                     120                     104              105.656854                       0                       0                       0
118                     120                     104              102.828427                       0                       0                       0
119                     120                     104                     100                       0                       0                       0
120                     122                     106              105.656854                       0                       0                       0
121                     122                     106              102.828427                       0                       0                       0
122                     122                     106                     100                       0                       0                       0
123                     124                     104              105.656854                       0                       0                       0
124                     124                     104              102.828427                       0                       0                       0
125                     124                     104                     100                       0                       0                       0
126                     126                     106              105.656854                       0                       0                       0
127                     126                     106              102.828427                       0                       0                       0
128                     126                     106                     100                       0                       0                       0
129                     128                     104              105.656854                       0                       0                       0
130                     128                     104              102.828427                       0                       0                       0
131                     128                     104                     100                       0                       0                       0
132                     130                     106              105.656854                       0                       0                       0
133                     130                     106              102.828427                       0                       0                       0
134                     130                     106                     100                       0                       0                       0
135                     100                     108              105.656854                       0                       0                       0
136                     100                     108              102.828427                       0                       0                       0
137                     100                     108                     100                       0                       0                       0
138                     102                     110              105.656854                       0                       0                       0
139                     102                     110              102.828427                       0                       0                       0
140                     102                     110                     100                       0                       0                       0
141                     104                     108              105.656854                       0                       0                       0
142                     104                     108              102.828427                       0                       0                       0
143                     104                     108                     100                       0                       0                       0
144                     106                     110              105.656854                       0                       0                       0
145                     106                     110              102.828427                       0                       0                       0
146                     106                     110                     100                       0                       0                       0
147                     108                     108              105.656854                       0                       0                       0
148                     108                     108              102.828427                       0                       0                       0
149                     108                     108                     100                       0                       0                       0
150                     110                     110              105.656854                       0                       0                       0
151                     110                     110              102.828427                       0                       0                       0
152                     110                     110                     100                       0                       0                       0
153                     112                     108              105.656854                       0                       0                       0
154                     112                     108              102.828427                       0                       0                       0
155                     112                     108                     100                       0                       0                       0
156                     114                     110              105.656854                       0                       0                       0
157                     114                     110              102.828427                       0                       0                       0
158                     114                     110                     100                       0                       0                       0
159                     116                     108              105.656854                       0                       0                       0
160                     116                     108              102.828427                       0                       0                       0
161                     116                     108                     100                       0                       0                       0
162                     118                     110              105.656854                       0                       0                       0
163                     118                     110              102.828427                       0                       0                       0
164                     118                     110                     100                       0                       0                       0
165                     120                     108              105.656854                       0                       0                       0
166                     120                     108              102.828427                       0                       0                       0
167                     120                     108                     100                       0                       0                       0
168                     122                     110              105.656854                       0                       0                       0
169                     122                     110              102.828427                       0                       0                       0
170                     122                     110                     100                       0                       0                       0
171                     124                     108              105.656854                       0                       0                       0
172                     124                     108              102.828427                       0                       0                       0
173                     124                     108                     100                       0                       0                       0
174                     126                     110              105.656854                       0                       0                       0
175                     126                     110              102.828427                       0                       0                       0
176                     126                     110                     100                       0                       0                       0
177                     128                     108              105.656854                       0                       0                       0
178                     128                     108              102.828427                       0                       0                       0
179                     128                     108                     100                       0                       0                       0
180                     130                     110              105.656854                       0                       0                       0
181                     130                     110              102.828427                       0                       0                       0
182                     130                     110                     100                       0                       0                       0
183                     100                     112              105.656854                       0                       0                       0
184                     100                     112              102.828427                       0                       0                       0
185                     100                     112                     100                       0                       0                       0
186                     102                     114              105.656854                       0                       0                       0
187                     102                     114              102.828427                       0                       0                       0
188                     102                     114                     100                       0                       0                       0
189                     104                     112              105.656854                       0                       0                       0
190                     104                     112              102.828427                       0                       0                       0
191                     104                     112                     100                       0                       0                       0
192                     106                     114              105.656854                       0                       0                       0
193                     106                     114              102.828427                       0                       0                       0
194                     106                     114                     100                       0                       0                       0
195                     108                     112              105.656854                       0                       0                       0
196                     108                     112              102.828427                       0                       0                       0
197                     108                     112                     100                       0                       0                       0
198                     110                     114              105.656854                       0                       0                       0
199                     110                     114              102.828427                       0                       0                       0
200                     110                     114                     100                       0                       0                       0
201                     112                     112              105.656854                       0                       0                       0