ITEM: TIMESTEP
0
ITEM: NUMBER OF ATOMS
422
ITEM: BOX BOUNDS pp pp pp
0.0000000000000000e+00 3.2000000000000000e+01
0.0000000000000000e+00 3.2000000000000000e+01
0.0000000000000000e+00 3.2000000000000000e+01
ITEM: ATOMS id xu yu zu fx fy fz
1        13.1459321938386        16.7835208156773                 8.65685     -0.0164659285156673     -0.0229207290261612       0.040640763201805
2        18.8274848400711        16.7892262416344                 8.65685      0.0165632908073238     -0.0236936976127365      0.0426094736605665
3         17.402344993917         16.787795112765                 8.65685     -0.0147268194935684     -0.0291030050438056      0.0550887864307171
4         14.571072038949        16.7849519429358                 8.65685      0.0142924523989469      -0.029606128565801      0.0561399396786838
5        16.7010751677692        15.5497248501637                 8.65685    -0.00738732831787237     0.00776691166222473     0.00604515108763302
6        15.2748269908674        15.5482926087119                 8.65685     0.00761330911677033     0.00811262268119128     0.00667287633103814
7        15.2723418650276        18.0230222053877                 8.65685      0.0344277404346147    0.000650089039414908       0.064863452372556
8        16.6985900414216        18.0244544465825                 8.65685     -0.0333996865647081    0.000660522618316131      0.0614154413339988
9        14.5177569207574        14.3484462411751                 8.65685      0.0313633168016272      0.0210932249799855        0.15659828030542
10        17.4605534827313        14.3514014038861                 8.65685     -0.0321679864914345      0.0209393007400855       0.153878468948852
11        14.5128635507729         19.221345651893                 8.65685      0.0132365895343588       0.030637526458054      0.0582708754354667
12        17.4556601106552        19.2243008141789                 8.65685     -0.0136943263303825      0.0299281317973239      0.0564833877519753
13        13.1273112602358        14.3624445878976                 8.65685     -0.0384536845669296      0.0159821428365338        0.10965203442082
14        13.1224488081137        19.2045547622743                 8.65685      -0.016776664273522      0.0225594993204497      0.0402320093111373
15         18.850968226168        14.3681922935721                 8.65685      0.0383020054623595      0.0165779155592812       0.112289452200034
16        18.8461057714963        19.2103024705805                 8.65685      0.0166098976635374      0.0232388775639015      0.0415844028034772
17         12.426795838139        17.9943199436399                 8.65685     -0.0218257203920573   -0.000100023360328116      0.0351596310053929
18        12.4292290587396        15.5712798150634                 8.65685    -0.00452320497708208     0.00452220234339565    0.000371158324792045
19        19.5466211966922        15.5784271122721                 8.65685     0.00470667721845812     0.00465469267703169    0.000622293256992449
20        19.5441879750283        18.0014672429596                 8.65685      0.0231963122992378    2.71109459692165e-05      0.0374128730937445
21        20.9551350226241        15.6244350858224                 8.65685    -0.00805449695420061     0.00966355103846197      0.0103782084577094
22        20.9527913622507        17.9582882295758                 8.65685     -0.0403003649616503    -0.00161856069833466      0.0946599593054179
23        11.0206256731611        15.6144588294926                 8.65685     0.00828530194140542      0.0102363970823819       0.011364416912814
24        11.0182820131454        17.9483119722736                 8.65685       0.040724063084939    -0.00207984744979187      0.0987489929854171
25        21.5867264607395        16.7919970781177                 8.65685     -0.0045927106335035     -0.0133888252847244      0.0183131581901778
26        10.3866905744716        16.7807499786644                 8.65685     0.00428097629032162     -0.0134448213943628      0.0182006589106806
27         21.609196045824        18.9859221409264                 8.65685     -0.0060403147547467      0.0153502836446605       0.030524351233303
28        21.6136022867001        14.5981215696947                 8.65685    -0.00894930536849117      0.0138927632610235      0.0524541446992735
29        10.3598147507275        18.9746254872963                 8.65685     0.00572753398453208       0.015631615587301      0.0318445864761143
30        10.3642209902605        14.5868249167297                 8.65685     0.00860058262466034      0.0138976280811433      0.0537694967597289
31        12.5998668222426        13.4154548000933                 8.65685    -0.00242455827518662   -0.000882296502186559    -0.00579504909043294
32        12.5931035005993        20.1504833212092                 8.65685   -1.46747956193682e-05   -0.000121466913015983     -0.0100979165168036
33        19.3803135329519        13.4222637346313                 8.65685     0.00251121176096836   -0.000920986176487354    -0.00556020614337888
34        19.3735502071424         20.157292260389                 8.65685    2.76148361899736e-05   -0.000144231407928352      -0.010058478979396
35        14.9622865728669        13.3689605638796                 8.65685     0.00340591530887624    -0.00215392606684456   -0.000566120835236604
36         14.955425108682        20.2017221461408                 8.65685    0.000223780496317161   -0.000522576307109057    -0.00933513708207821
37        17.0179919240215        13.3710249097393                 8.65685    -0.00339047020577687    -0.00208731832969741   -0.000828758987191173
38         17.011130457531        20.2037864905846                 8.65685   -0.000212738117074451   -0.000497998895199997    -0.00939752680963825
39                       0                       0                5.656854                       0                       0                       0
40                       0                       0                2.828427                       0                       0                       0
41                       0                       0                       0                       0                       0                       0
42                       2                       2                5.656854                       0                       0                       0
43                       2                       2                2.828427                       0                       0                       0
44                       2                       2                       0                       0                       0                       0
45                       4                       0                5.656854     1.1075370539915e-10   -1.99425905906326e-10    4.72225024322024e-11
46                       4                       0                2.828427                       0                       0                       0
47                       4                       0                       0                       0                       0                       0
48                       6                       2                5.656854    5.21108389357973e-09      1.128849734682e-08    2.75305960472049e-09
49                       6                       2                2.828427    1.43783262077611e-10    3.31967629883896e-10    1.59608717462652e-10
50                       6                       2                       0                       0                       0                       0
51                       8                       0                5.656854    1.36117777913753e-09   -3.72924494898561e-09    9.43716303694641e-10
52                       8                       0                2.828427    1.44053600394848e-09   -4.23378658139273e-09    1.98339471149899e-09
53                       8                       0                       0                       0                       0                       0
54                      10                       2                5.656854    2.37360984969656e-08    9.46658447627111e-08    2.40386737253471e-08
55                      10                       2                2.828427    8.92136309018661e-10    3.76662109944127e-09     1.8116124202124e-09
56                      10                       2                       0    1.27639961475234e-10    5.60439557303678e-10    4.25006385343902e-10
57                      12                       0                5.656854    2.51301200291454e-09   -1.48533895759811e-08    4.25678188772883e-09
58                      12                       0                2.828427    2.43939588819783e-09   -1.70456297708751e-08    8.96757907572018e-09
59                      12                       0                       0    1.85831808733724e-11   -1.41564147837659e-10    1.03603896718384e-10
60                      14                       2                5.656854    1.48304213296336e-08    2.30354362239812e-07    5.93032737517841e-08
61                      14                       2                2.828427    6.03942351687728e-10    8.88614919594841e-09    4.32566242192204e-09
62                      14                       2                       0     1.1744049280733e-10    2.05812565254921e-09    1.56482550898551e-09
63                      16                       0                5.656854    -2.0166513197599e-13   -2.19956675518584e-08    6.40252669095109e-09
64                      16                       0                2.828427   -4.09604750793505e-12   -2.72567248900838e-08    1.40484627246458e-08
65                      16                       0                       0   -1.97321345692914e-13   -1.72490198655714e-10    1.26573797533649e-10
66                      18                       2                5.656854   -1.51923664407595e-08    2.29053262665582e-07    5.89674787305759e-08
67                      18                       2                2.828427   -6.17485520656617e-10    8.84075536906412e-09    4.30274638397563e-09
68                      18                       2                       0   -1.20625325083572e-10     2.0488402519893e-09    1.55739926212229e-09
69                      20                       0                5.656854   -2.52362731114146e-09   -1.48641816564158e-08    4.25286730304244e-09
70                      20                       0                2.828427   -2.46532960967426e-09   -1.70672000802301e-08    8.97080559329609e-09
71                      20                       0                       0   -1.88975148960204e-11   -1.41599681206882e-10    1.03671280033069e-10
72                      22                       2                5.656854   -2.35293863614767e-08    9.31286410084239e-08    2.36442859303312e-08
73                      22                       2                2.828427   -8.85352756765023e-10    3.71024158884815e-09    1.78363944076236e-09
74                      22                       2                       0   -1.26832015231263e-10    5.53008440585895e-10    4.19121045539449e-10
75                      24                       0                5.656854   -1.35931260230796e-09   -3.71154255788408e-09    9.38602618482495e-10
76                      24                       0                2.828427   -1.44047596733047e-09   -4.21311524093745e-09    1.97433515540796e-09
77                      24                       0                       0                       0                       0                       0
78                      26                       2                5.656854   -5.09952196558669e-09    1.10073239149544e-08    2.68280352812773e-09
79                      26                       2                2.828427   -1.40904580604394e-10    3.24140142155995e-10    1.55734185570542e-10
80                      26                       2                       0                       0                       0                       0
81                      28                       0                5.656854   -1.09998608607677e-10   -1.97299644323917e-10    4.67408662731757e-11
82                      28                       0                2.828427                       0                       0                       0
83                      28                       0                       0                       0                       0                       0
84                      30                       2                5.656854                       0                       0                       0
85                      30                       2                2.828427                       0                       0                       0
86                      30                       2                       0                       0                       0                       0
87                       0                       4                5.656854                       0                       0                       0
88                       0                       4                2.828427                       0                       0                       0
89                       0                       4                       0                       0                       0                       0
90                       2                       6                5.656854    4.21919810039844e-08    4.18129882789091e-08    1.42572135149394e-08
91                       2                       6                2.828427    1.49206808618288e-09    1.51231072166271e-09    9.99488474828182e-10
92                       2                       6                       0    5.33498804994483e-10    5.47697249643029e-10    5.52163690485258e-10
93                       4                       4                5.656854    4.03283010097264e-09    5.93401280691646e-09    1.67682326788928e-09
94                       4                       4                2.828427    4.89172560122389e-09     7.1841567231695e-09    3.97520885801445e-09
95                       4                       4                       0                       0                       0                       0
96                       6                       6                5.656854    1.21533175709499e-06    1.93416808938549e-06    6.73249940112707e-07
97                       6                       6                2.828427    3.72529083753564e-08    5.86603271659732e-08    3.94330929826584e-08
98                       6                       6                       0    1.61040516044739e-08    2.49997531717281e-08    2.50158588115601e-08
99                       8                       4                5.656854    4.28939633015226e-08     1.0644259945332e-07    3.08553728014107e-08
100                       8                       4                2.828427     4.7324655058148e-08    1.17269389041969e-07    6.58642386895937e-08
101                       8                       4                       0    6.76286040401214e-10    1.66550042424594e-09     1.4017390531307e-09
102                      10                       6                5.656854    7.21911476394442e-06    2.28447528984556e-05    8.32042483745406e-06
103                      10                       6                2.828427     1.7415667252649e-07    5.42858869515716e-07    3.79321018311532e-07
104                      10                       6                       0    6.11661771922974e-08    1.86755056787214e-07    1.91265900071781e-07
105                      12                       4                5.656854    8.27737199574085e-08    5.15959220845844e-07    1.53750471596147e-07
106                      12                       4                2.828427    8.33877832765652e-08    5.07663032445223e-07    2.92043326355904e-07
107                      12                       4                       0    1.06962622221309e-09    6.74248997530716e-09    5.75423291552395e-09
108                      14                       6                5.656854    4.17424350793285e-06      6.282021228527e-05    2.35241464408494e-05
109                      14                       6                2.828427    9.92681819430456e-08    1.34806032634129e-06    9.66407986288613e-07
110                      14                       6                       0    3.44490964273218e-08    4.19361086948911e-07    4.39491794922706e-07
111                      16                       4                5.656854   -7.85318938662832e-10    7.71497236425968e-07    2.31923467978887e-07
112                      16                       4                2.828427   -7.60640460140574e-10    7.46264677785333e-07    4.32757863613336e-07
113                      16                       4                       0   -1.00772842971619e-11    9.85743672806316e-09     8.4740622367394e-09
114                      18                       6                5.656854   -4.28876253615316e-06    6.24444548762925e-05    2.33745942431465e-05
115                      18                       6                2.828427   -1.01753496163261e-07    1.34107674976564e-06    9.61069228212274e-07
116                      18                       6                       0   -3.52345711798931e-08    4.17516568888682e-07    4.37422237539868e-07
117                      20                       4                5.656854   -8.28569373950352e-08    5.09955230840497e-07    1.51889604479848e-07
118                      20                       4                2.828427   -8.29535511503435e-08    5.01446344694722e-07     2.8840166517721e-07
119                      20                       4                       0    -1.0735067100153e-09    6.68100274193627e-09     5.6991689060587e-09
120                      22                       6                5.656854   -7.13756327904899e-06    2.24241338286194e-05    8.16039056020702e-06
121                      22                       6                2.828427   -1.72578769911538e-07    5.34133961425196e-07    3.72934324095343e-07
122                      22                       6                       0   -6.05558083342115e-08    1.83255146799872e-07    1.87830784093567e-07
123                      24                       4                5.656854   -4.21472802327046e-08     1.0407963570006e-07    3.01495038394446e-08
124                      24                       4                2.828427   -4.65893488089777e-08     1.1489116070258e-07    6.44847060577119e-08
125                      24                       4                       0   -6.67338276346633e-10    1.63571748894384e-09    1.37571830161179e-09
126                      26                       6                5.656854   -1.18487118318711e-06    1.87923026363828e-06    6.53485440638752e-07
127                      26                       6                2.828427   -3.64233175321291e-08    5.71622839233196e-08    3.83900669502363e-08
128                      26                       6                       0   -1.57971233624465e-08     2.4444065317852e-08    2.44371321177461e-08
129                      28                       4                5.656854   -3.92186492961853e-09    5.75606360155365e-09    1.62522045624289e-09
130                      28                       4                2.828427   -4.05500791232556e-09    6.17695737909194e-09      3.407540054969e-09
131                      28                       4                       0                       0                       0                       0
132                      30                       6                5.656854   -4.08237671369395e-08    4.03910769326851e-08    1.37577744538051e-08
133                      30                       6                2.828427   -1.44704489006443e-09    1.46432429215296e-09    9.66726561317973e-10
134                      30                       6                       0   -5.19123796876761e-10    5.32229649470275e-10    5.35864979771429e-10
135                       0                       8                5.656854    2.00273249083154e-10    7.19526768629048e-09    3.10486392797707e-09
136                       0                       8                2.828427    2.28576275029645e-10    8.94185807930785e-09    7.46716765708749e-09
137                       0                       8                       0                       0                       0                       0
138                       2                      10                5.656854    1.82941406258828e-06    1.07805907515059e-06    6.32465452311477e-07
139                       2                      10                2.828427    5.48047356022911e-08    3.24658501366907e-08    3.64907748226917e-08
140                       2                      10                       0    2.31661463738579e-08    1.35847012593015e-08    2.26424393029366e-08
141                       4                       8                5.656854    4.52159975894028e-07     4.4747084453092e-07     1.9563719225408e-07
142                       4                       8                2.828427     4.1410103384578e-07    4.07305052712755e-07    3.42925514079324e-07
143                       4                       8                       0     5.0970363952057e-09    5.01050069229346e-09    6.24302216930107e-09
144                       6                      10                5.656854    0.000128488352499832    0.000127407171107396    7.83272054409109e-05
145                       6                      10                2.828427    2.11054751660672e-06    2.06229338709214e-06    2.41021098433535e-06
146                       6                      10                       0    5.21489081642555e-07    5.02543035135713e-07     8.5070644268482e-07
147                       8                       8                5.656854    8.69751070637384e-06    1.58681004655271e-05    7.25477980223892e-06
148                       8                       8                2.828427    5.34467054987723e-06    9.48741450346268e-06    8.30832763698709e-06
149                       8                       8                       0    4.65478846517258e-08    8.04500351384617e-08    1.02964791780857e-07
150                      10                      10                5.656854      0.0012350313967808     0.00274864938115005     0.00184253665420438
151                      10                      10                2.828427     1.2434521078484e-05    2.65705651533795e-05    3.32412611703884e-05
152                      10                      10                       0    2.07329338476193e-06    4.21569022067481e-06    7.52145442521242e-06
153                      12                       8                5.656854    2.19007344481946e-05    0.000108674710009382    5.32639512787268e-05
154                      12                       8                2.828427    1.03156480748566e-05    4.87509185991617e-05    4.51141948084335e-05
155                      12                       8                       0    7.31040936448476e-08    3.26327788055704e-07    4.35474185331233e-07
156                      14                      10                5.656854    0.000504661277099247     0.00809277810773047     0.00588771276382843
157                      14                      10                2.828427    5.40394460949443e-06    6.55309054255725e-05    8.76317279550325e-05
158                      14                      10                       0    9.57340188091982e-07    9.07733812526546e-06    1.70272390161292e-05
159                      16                       8                5.656854   -1.77856315185202e-07    0.000161149013452166    8.05381373014568e-05
160                      16                       8                2.828427   -8.01766627692764e-08    7.00778010705312e-05    6.60775165873378e-05
161                      16                       8                       0   -5.41870409134376e-10    4.56288057705825e-07    6.19143602187596e-07
162                      18                      10                5.656854     -0.0005254244260445     0.00805519653158722     0.00585535691995835
163                      18                      10                2.828427   -5.56965830019076e-06    6.52738362615129e-05    8.72226149238922e-05
164                      18                      10                       0   -9.80265968396052e-07    9.04794673802311e-06    1.69615565533861e-05
165                      20                       8                5.656854   -2.19098804265532e-05    0.000107283565283467    5.25311181284612e-05
166                      20                       8                2.828427    -1.0336829294056e-05    4.82440711314303e-05    4.46066817057104e-05
167                      20                       8                       0   -7.33397967015268e-08    3.23563118436085e-07    4.31456485809672e-07
168                      22                      10                5.656854    -0.00121955479245878     0.00269556454695656     0.00180349892678638
169                      22                      10                2.828427   -1.23272542021402e-05    2.61625539042311e-05    3.26779140267118e-05
170                      22                      10                       0   -2.06141616520124e-06    4.16427141362758e-06    7.41964733734083e-06
171                      24                       8                5.656854   -8.51599024574333e-06    1.54618477237093e-05    7.05974705078528e-06
172                      24                       8                2.828427   -5.25232571731851e-06    9.28143376564369e-06     8.1182579905358e-06
173                      24                       8                       0   -4.59136022047833e-08    7.90006183091476e-08    1.00999519865539e-07
174                      26                      10                5.656854   -0.000124718668457949    0.000123319495312328    7.56679877666091e-05
175                      26                      10                2.828427   -2.06002302688998e-06    2.00735823908632e-06     2.3420078119157e-06
176                      26                      10                       0   -5.11469568512549e-07    4.91525408239997e-07    8.30815533309347e-07
177                      28                       8                5.656854   -4.37921679486108e-07    4.32462494610829e-07    1.88821832451884e-07
178                      28                       8                2.828427   -4.02560943338189e-07    3.95114976845858e-07     3.3224486651117e-07
179                      28                       8                       0   -4.97536025479452e-09     4.8806650746678e-09    6.07380358200483e-09
180                      30                      10                5.656854   -1.76402354810145e-06    1.03902378912568e-06    6.08612400520421e-07
181                      30                      10                2.828427   -5.30573254657827e-08    3.14101847418567e-08    3.52505304700218e-08
182                      30                      10                       0   -2.25318960337741e-08    1.31983483654911e-08    2.19639688978121e-08
183                       0                      12                5.656854     3.0460290560361e-09    5.31294244753496e-08    4.56453955431345e-08
184                       0                      12                2.828427    4.09198909048492e-09    5.99665004645832e-08    9.85342315866374e-08
185                       0                      12                       0    3.44172329444278e-11    7.30941690387756e-10    1.90174735131062e-09
186                       2                      14                5.656854    1.56063913832107e-05    3.23772236212069e-06    5.40780586983756e-06
187                       2                      14                2.828427    3.83092964255704e-07    8.34712087388429e-08    2.56764813381449e-07
188                       2                      14                       0    1.34707808196864e-07    3.03265724975297e-08    1.31944700169833e-07
189                       4                      12                5.656854    1.48799936180272e-05    7.11220527752031e-06    6.63400151913313e-06
190                       4                      12                2.828427    8.73982937586593e-06    4.27803328184734e-06    7.43495736423457e-06
191                       4                      12                       0    7.35711548328221e-08    3.67768846280905e-08    9.09504646742678e-08
192                       6                      14                5.656854     0.00244551500428872    0.000771169357584919     0.00154335888864362
193                       6                      14                2.828427    2.35932422454426e-05    8.10267548582156e-06    2.79011623327716e-05
194                       6                      14                       0    3.73975261076082e-06     1.3594007623706e-06    6.28588479145288e-06
195                       8                      12                5.656854     0.00071870493694812    0.000714666583385076    0.000725691577148089
196                       8                      12                2.828427    0.000178670305363265    0.000171367939894269    0.000318553318242862
197                       8                      12                       0    7.85980495049557e-07    7.31440106509662e-07    1.90538018461337e-06
198                      10                      14                5.656854    0.000508036816207232     -0.0122721541990849     -0.0643612271167196
199                      10                      14                2.828427    0.000146014707318666    0.000129057637575702    0.000497922418258768
200                      10                      14                       0    1.43622615506078e-05    1.20341282234981e-05    6.05277154241967e-05
201                      12                      12                5.656854     0.00152905882496453     0.00480211930425904     0.00562646875503535