ITEM: TIMESTEP
0
ITEM: NUMBER OF ATOMS
422
ITEM: BOX BOUNDS pp pp pp
0.0000000000000000e+00 3.2000000000000000e+01
0.0000000000000000e+00 3.2000000000000000e+01
0.0000000000000000e+00 3.2000000000000000e+01
ITEM: ATOMS id xu yu zu fx fy fz
1        13.8459321938386        15.9835208156773                 8.65685    -0.00178039604454389    0.000856468558991619      0.0184826504840525
2        19.5274848400711        15.9892262416344                 8.65685     0.00294818798483586    0.000124614786713147     -0.0023467144635379
3         18.102344993917         15.987795112765                 8.65685      0.0011934275247286    0.000639568716788224      0.0187307271962678
4         15.271072038949        15.9849519429358                 8.65685     0.00450494580615716    0.000279242560511476    0.000624414808015314
5        17.4010751677692        14.7497248501637                 8.65685     -0.0259665588304914      0.0325044879984485       0.107464113386772
6        15.9748269908674        14.7482926087119                 8.65685    0.000933743722697126     0.00589417332567252     0.00993048556619715
7        15.9723418650276        17.2230222053877                 8.65685     0.00099760830834097    -0.00593068992061931     0.00938066540500389
8        17.3985900414216        17.2244544465825                 8.65685     -0.0253886830018916     -0.0327355538738754       0.104239897279308
9        15.2177569207574        13.5484462411751                 8.65685      0.0318915283919754     -0.0121648470381442      0.0613803914585998
10        18.1605534827313        13.5514014038861                 8.65685       0.010763461040674     -0.0301026308208826       0.175416327076546
11        15.2128635507729         18.421345651893                 8.65685      0.0325562569915198      0.0116262814585189       0.063186098958502
12        18.1556601106552        18.4243008141789                 8.65685      0.0105866191072838      0.0288822281399405       0.178218845222272
13        13.8273112602357        13.5624445878976                 8.65685       -0.01161944725926     -0.0294672182446199       0.176119682502126
14        13.8224488081137        18.4045547622743                 8.65685     -0.0121455665034949      0.0276945824966573       0.179348356405742
15         19.550968226168        13.5681922935721                 8.65685       0.020370352203869    -0.00695621893230362      0.0313965435953038
16        19.5461057714963        18.4103024705805                 8.65685      0.0208076137893838     0.00674130767019415      0.0322438455198092
17         13.126795838139        17.1943199436399                 8.65685     -0.0277667631954317     -0.0256389703520351      0.0750986710471216
18        13.1292290587396        14.7712798150634                 8.65685     -0.0287297785050292      0.0254712125289511      0.0784297346633892
19        20.2466211966922        14.7784271122721                 8.65685    -0.00880082585266081       0.007004125302555      0.0129828952318383
20        20.2441879750283        17.2014672429596                 8.65685    -0.00854067197880795    -0.00700439724396834      0.0124446490099479
21        21.6551350226241        14.8244350858224                 8.65685     -0.0161337789116234      0.0385737158788475       0.117294783808037
22        21.6527913622507        17.1582882295758                 8.65685     -0.0159363265314917     -0.0386277280191275       0.114778734606856
23        11.7206256731611        14.8144588294926                 8.65685      0.0095833251176794     0.00734562346988838      0.0131423853086715
24        11.7182820131454        17.1483119722736                 8.65685     0.00928455280283508    -0.00737651988701604      0.0123080193967174
25        22.2867264607395        15.9919970781177                 8.65685       0.001137558316332    0.000162222961839893    -0.00149068617810814
26        11.0866905744716        15.9807499786644                 8.65685     0.00179685587144676    0.000184880415211249    -0.00699830231699957
27         22.309196045824        18.1859221409264                 8.65685     0.00915319824744864     0.00549921648941626      0.0710553523639964
28        22.3136022867001        13.7981215696947                 8.65685     0.00922999002245042     -0.0059369501860251      0.0705577636924039
29        11.0598147507275        18.1746254872963                 8.65685        0.01616161708211     0.00264504175026673      0.0297184050233488
30        11.0642209902605        13.7868249167297                 8.65685      0.0159724107586494    -0.00317855999098524       0.029041530675657
31        13.2998668222426        12.6154548000933                 8.65685   -0.000975531832849614    -0.00221089975380711    -0.00617082066554624
32        13.2931035005993        19.3504833212092                 8.65685    -0.00106249922139882     0.00230156048277188    -0.00587894335755767
33        20.0803135329519        12.6222637346313                 8.65685   -7.20314457155385e-05    4.10435589320123e-06      -0.010110032391648
34        20.0735502071424         19.357292260389                 8.65685   -7.10167244938087e-05   -4.03089709039256e-07     -0.0100930994760462
35        15.6622865728669        12.5689605638796                 8.65685    0.000256781922996572   -0.000148336620302772    -0.00991345559536192
36         15.655425108682        19.4017221461408                 8.65685     0.00029373535488411    0.000169296962154938    -0.00985798147789326
37        17.7179919240215        12.5710249097393                 8.65685   -0.000489456948432432    -0.00282580804706469    -0.00507124736065031
38         17.711130457531        19.4037864905846                 8.65685   -0.000530796498576266     0.00292951877779044    -0.00478865913978629
39                       0                       0                5.656854                       0                       0                       0
40                       0                       0                2.828427                       0                       0                       0
41                       0                       0                       0                       0                       0                       0
42                       2                       2                5.656854                       0                       0                       0
43                       2                       2                2.828427                       0                       0                       0
44                       2                       2                       0                       0                       0                       0
45                       4                       0                5.656854                       0                       0                       0
46                       4                       0                2.828427                       0                       0                       0
47                       4                       0                       0                       0                       0                       0
48                       6                       2                5.656854    1.11691557586699e-08    2.08713401106244e-08    5.37981215334167e-09
49                       6                       2                2.828427    2.92103880639982e-10    5.73041778817631e-10    2.93067327163418e-10
50                       6                       2                       0                       0                       0                       0
51                       8                       0                5.656854    3.29285632474839e-10    2.45227007234126e-11    2.34322711815566e-10
52                       8                       0                2.828427    3.12168111095628e-10    1.44533655370121e-11    3.43515298587191e-10
53                       8                       0                       0                       0                       0                       0
54                      10                       2                5.656854    6.65286611861492e-08     2.2452772312075e-07    5.91475215772828e-08
55                      10                       2                2.828427    2.38997190037748e-09    8.18141301109699e-09    4.18907235947481e-09
56                      10                       2                       0    9.45064747055787e-10    3.36047750048037e-09    2.60145636238543e-09
57                      12                       0                5.656854    1.26190736564807e-09    1.75810222543568e-10    1.79175850766185e-09
58                      12                       0                2.828427    1.26821277339601e-09    1.10268918804182e-09    3.75006200767976e-09
59                      12                       0                       0                       0                       0                       0
60                      14                       2                5.656854     6.3113782334255e-08    6.81733536363685e-07     1.8286493866545e-07
61                      14                       2                2.828427    2.24319739051708e-09    2.38225919222168e-08    1.23688310628644e-08
62                      14                       2                       0    6.80008968649279e-10    9.83904021749996e-09    7.70473006135023e-09
63                      16                       0                5.656854    2.72046940415031e-10    2.89860165012509e-10    3.31324397833273e-09
64                      16                       0                2.828427    1.12178304287393e-10    3.46662976895227e-10    8.14796238992185e-09
65                      16                       0                       0                       0                       0                       0
66                      18                       2                5.656854   -3.28930093974253e-08    7.76855731296585e-07    2.08601457422531e-07
67                      18                       2                2.828427   -1.17644253792438e-09    2.70817259775224e-08    1.40874327559988e-08
68                      18                       2                       0    -4.2153597126298e-10    1.13750727475827e-08    8.92019313319636e-09
69                      20                       0                5.656854   -1.19474014446501e-09    1.87715610537079e-10    2.49945608417589e-09
70                      20                       0                2.828427   -1.37215174237797e-09    2.09683923867048e-10    5.84408529014591e-09
71                      20                       0                       0                       0                       0                       0
72                      22                       2                5.656854   -8.34432232393302e-08    3.76364248868015e-07    9.97731205300594e-08
73                      22                       2                2.828427   -2.96693355320279e-09     1.3442114255641e-08    6.91932615924548e-09
74                      22                       2                       0   -1.23903637398058e-09    5.89757176355083e-09    4.56242265021046e-09
75                      24                       0                5.656854   -7.91205863251804e-10    4.20658334716796e-11    6.34953266822818e-10
76                      24                       0                2.828427   -4.54867209234206e-10    2.14548334513194e-11     6.7579601996251e-10
77                      24                       0                       0                       0                       0                       0
78                      26                       2                5.656854    -2.4815557979484e-08    5.50564836822553e-08    1.42605074694519e-08
79                      26                       2                2.828427   -8.77704038730254e-10    1.98527336854952e-09     1.0057440288837e-09
80                      26                       2                       0   -1.63635168182643e-10    2.93626346998667e-10    2.39297319810299e-10
81                      28                       0                5.656854                       0                       0                       0
82                      28                       0                2.828427                       0                       0                       0
83                      28                       0                       0                       0                       0                       0
84                      30                       2                5.656854   -1.21689853411211e-09    1.72205659542477e-09    4.47349326988873e-10
85                      30                       2                2.828427                       0                       0                       0
86                      30                       2                       0                       0                       0                       0
87                       0                       4                5.656854   -3.19654064968588e-10    3.23340986144822e-10    9.90007786870869e-11
88                       0                       4                2.828427   -4.70632921472985e-10    4.76061247512204e-10     2.8318553762293e-10
89                       0                       4                       0                       0                       0                       0
90                       2                       6                5.656854    4.55435031245154e-08    4.07661888508706e-08    1.51954089972496e-08
91                       2                       6                2.828427    1.68703441405614e-09    1.45648052391573e-09    1.05078819179899e-09
92                       2                       6                       0    6.06397592846923e-10    5.20939625203208e-10    5.79144419280759e-10
93                       4                       4                5.656854    6.21720121051184e-09    7.90848341175364e-09    2.39953622944156e-09
94                       4                       4                2.828427    7.35283119676714e-09    9.28977593114299e-09    5.52995357607319e-09
95                       4                       4                       0    7.15464019495163e-11    9.91209236329493e-11    8.76765421934842e-11
96                       6                       6                5.656854    1.98972684994836e-06    2.67139623319073e-06    1.01246263595594e-06
97                       6                       6                2.828427    5.80872500644829e-08    7.71346322769615e-08    5.64238255902353e-08
98                       6                       6                       0    2.38096218347348e-08    3.10542477368234e-08    3.38630688461377e-08
99                       8                       4                5.656854    9.38181448381449e-08     1.9770611559116e-07     6.1488468126699e-08
100                       8                       4                2.828427    9.80434991040495e-08    2.05475772866005e-07    1.23668934336919e-07
101                       8                       4                       0     1.4057478889555e-09    2.90030429209767e-09    2.60248308195873e-09
102                      10                       6                5.656854    1.78198440507269e-05    4.57616856885037e-05    1.82089348858728e-05
103                      10                       6                2.828427    3.87252133075475e-07    9.77185565364507e-07    7.44810154112804e-07
104                      10                       6                       0    1.22498223529548e-07    3.02331794433608e-07    3.37165105266964e-07
105                      12                       4                5.656854    2.70033711900169e-07    1.29553119201501e-06    4.17305801010928e-07
106                      12                       4                2.828427    2.45112386640375e-07    1.15217810047813e-06    7.14174721386317e-07
107                      12                       4                       0    3.10891679231247e-09    1.42525553100269e-08    1.30291218570928e-08
108                      14                       6                5.656854    1.72221658665493e-05     0.00016905179579141    7.00578713730866e-05
109                      14                       6                2.828427    3.43146863120357e-07     3.0738642987602e-06    2.42828102656886e-06
110                      14                       6                       0    1.00881721976047e-07    8.22896852745878e-07    9.45558473316483e-07
111                      16                       4                5.656854    4.67073062597091e-08    2.32012935825169e-06    7.57797211049484e-07
112                      16                       4                2.828427      4.440594480298e-08    1.98599758391848e-06    1.24779661374765e-06
113                      16                       4                       0     5.7705485222063e-10     2.3755786040155e-08    2.19515503590885e-08
114                      18                       6                5.656854    -7.5691290819859e-06    0.000190528140161485    7.93403424709538e-05
115                      18                       6                2.828427   -1.61164552658354e-07    3.45172482705031e-06    2.73971578705356e-06
116                      18                       6                       0   -5.00642172835057e-08    9.19837886287393e-07    1.06150688513636e-06
117                      20                       4                5.656854   -2.32069897668399e-07     1.7891598018936e-06    5.80305668563147e-07
118                      20                       4                2.828427   -2.10226230942484e-07    1.55111860414948e-06     9.6781891543135e-07
119                      20                       4                       0   -2.59458348469776e-09    1.87222672248258e-08    1.71982384274786e-08
120                      22                       6                5.656854   -2.41926496387484e-05    8.50721706739517e-05    3.44796864200545e-05
121                      22                       6                2.828427   -4.87122058050051e-07    1.67809749523966e-06    1.29855873192513e-06
122                      22                       6                       0   -1.43898720278622e-07    4.83135841416886e-07    5.45183462709861e-07
123                      24                       4                5.656854   -1.65529913111043e-07    4.36049161522594e-07     1.3736587435572e-07
124                      24                       4                2.828427   -1.64050994163572e-07    4.28302493235177e-07    2.60232833016691e-07
125                      24                       4                       0   -2.14163179172034e-09    5.65286538095234e-09    5.10044891799103e-09
126                      26                       6                5.656854    -5.0851912418772e-06    8.32467697985079e-06     3.1945373423266e-06
127                      26                       6                2.828427   -1.33344776683661e-07    2.14731707332816e-07    1.58864753050029e-07
128                      26                       6                       0   -4.94308232006925e-08      7.865531504175e-08    8.59523528406445e-08
129                      28                       4                5.656854   -1.86033747949334e-08    2.75965338524277e-08    8.41129743123229e-09
130                      28                       4                2.828427   -2.24732880870172e-08    3.30098116135808e-08    1.95574483689701e-08
131                      28                       4                       0   -2.15286753153435e-10    3.27425046785461e-10    2.98288746269466e-10
132                      30                       6                5.656854   -1.97483718880018e-07    1.92962886796993e-07     7.1825630581289e-08
133                      30                       6                2.828427   -6.85724884435114e-09    6.68429361229773e-09    4.84353242317597e-09
134                      30                       6                       0   -2.91661919366966e-09    2.86314538599591e-09    3.12471193097815e-09
135                       0                       8                5.656854    -2.0849542782624e-08    1.79208900163684e-08    8.58257164265723e-09
136                       0                       8                2.828427   -2.45681292108752e-08    2.16955623168797e-08    2.01163100831391e-08
137                       0                       8                       0   -2.62452176308709e-10    1.57099643181019e-10    2.34556662830237e-10
138                       2                      10                5.656854    1.31146984118111e-06    6.53059620819503e-07    4.40993731473315e-07
139                       2                      10                2.828427    4.07078824737038e-08    2.06558645428958e-08    2.66676522622082e-08
140                       2                      10                       0    1.81199778539315e-08    8.88513441660085e-09    1.66461845140817e-08
141                       4                       8                5.656854    5.03469446677799e-07    4.10673073951896e-07    2.00366089974828e-07
142                       4                       8                2.828427    4.57527295361947e-07     3.7254332670975e-07    3.49244429010327e-07
143                       4                       8                       0    5.58097902631026e-09    4.55150890069494e-09    6.30859346855494e-09
144                       6                      10                5.656854    0.000143598838765315    0.000109186262417979    7.81818596515741e-05
145                       6                      10                2.828427    2.33113184789594e-06    1.77231416772094e-06    2.39431386161524e-06
146                       6                      10                       0    5.70000767209859e-07    4.32959809363518e-07    8.41594016895712e-07
147                       8                       8                5.656854    1.55930167856345e-05    2.31008275809891e-05    1.17619224453916e-05
148                       8                       8                2.828427     8.7490282611314e-06    1.25815039432411e-05    1.22534875625907e-05
149                       8                       8                       0    7.07854527413402e-08    9.89871467685248e-08    1.40461633206553e-07
150                      10                      10                5.656854     0.00230147381996145     0.00395035670583212     0.00305631625513326
151                      10                      10                2.828427    2.09096987159949e-05    3.39815918473345e-05    4.90200794488509e-05
152                      10                      10                       0    3.18268199046058e-06    4.89156892982445e-06    1.00200397582907e-05
153                      12                       8                5.656854    6.47930957513566e-05    0.000231497290665084    0.000128487494143721
154                      12                       8                2.828427    2.51335436190793e-05     8.7114266528071e-05    9.05665162942713e-05
155                      12                       8                       0    1.53534473056854e-07    5.07906799919554e-07    7.57042675739587e-07
156                      14                      10                5.656854     0.00190155656243491      0.0142838475432768      0.0124002775842674
157                      14                      10                2.828427     1.5282435059445e-05    0.000105151014245334    0.000166494328838128
158                      14                      10                       0    2.18003571694901e-06     1.2631260567981e-05    2.76233741174214e-05
159                      16                       8                5.656854     5.4616939368143e-06    0.000421908278235415    0.000242319216677832
160                      16                       8                2.828427    3.06951131451943e-06    0.000147238794077891    0.000157989181364075
161                      16                       8                       0    2.35067097159524e-08    8.12108038569176e-07    1.24343741431658e-06
162                      18                      10                5.656854   -0.000427236902498462      0.0154146825559739      0.0135314679330111
163                      18                      10                2.828427   -5.13948434917557e-06    0.000113844940286706    0.000182279219071882
164                      18                      10                       0    -9.5529925932444e-07     1.3760668498249e-05    3.03906851681455e-05
165                      20                       8                5.656854   -5.28283360973322e-05    0.000336918241013582    0.000190452459620124
166                      20                       8                2.828427   -2.03545497249366e-05    0.000118735335301255    0.000125494511865765
167                      20                       8                       0   -1.24152388635115e-07    6.61465084791074e-07    9.99186686997081e-07
168                      22                      10                5.656854      -0.003242604870289     0.00767567044029408     0.00623492926538506
169                      22                      10                2.828427    -2.6115625314059e-05    5.96325182067796e-05    8.90995846080161e-05
170                      22                      10                       0   -3.63104021376131e-06    7.81347790503445e-06    1.63924927123226e-05
171                      24                       8                5.656854   -3.22854799625722e-05    6.18231230585969e-05    3.22554655034378e-05
172                      24                       8                2.828427   -1.57719781436949e-05    2.91385502280255e-05    2.89354144576913e-05
173                      24                       8                       0   -1.13416980104659e-07    2.02130352686702e-07      2.910763917552e-07
174                      26                      10                5.656854   -0.000501242349234322    0.000486486464268093    0.000354860895761725
175                      26                      10                2.828427    -6.3505296763954e-06    6.04792247354028e-06    8.30488150890798e-06
176                      26                      10                       0   -1.27135906338699e-06    1.18918426086412e-06    2.34207610806076e-06
177                      28                       8                5.656854   -1.96369464729927e-06    1.91252782304539e-06    9.43313860695721e-07
178                      28                       8                2.828427   -1.50694864213062e-06    1.45610149123618e-06    1.37836323570158e-06
179                      28                       8                       0   -1.62222660235773e-08    1.55832533302531e-08    2.16006074441914e-08
180                      30                      10                5.656854   -7.47076899936457e-06    4.04570282169729e-06    2.78300683636355e-06
181                      30                      10                2.828427   -1.91981348263083e-07    1.05079802026968e-07     1.3740287311973e-07
182                      30                      10                       0   -7.07299985881838e-08    3.93622545356215e-08    7.44723120663525e-08
183                       0                      12                5.656854   -2.51312555816014e-07    9.37491440963763e-08    1.00078727653047e-07
184                       0                      12                2.828427   -2.44474515896032e-07     9.7711097749509e-08    1.97301433738831e-07
185                       0                      12                       0   -3.29487186854043e-09    1.34414363327916e-09    3.99163711271123e-09
186                       2                      14                5.656854    7.09334340764734e-06     1.0083704061403e-06    2.36213559173854e-06
187                       2                      14                2.828427    1.92082360735256e-07    2.90505315969354e-08    1.25539022028122e-07
188                       2                      14                       0    7.55147215766364e-08    1.15391503955185e-08    7.19281046149114e-08
189                       4                      12                5.656854    9.73723154627308e-06    3.42608615926982e-06    3.94092335879763e-06
190                       4                      12                2.828427    6.25496534398503e-06    2.28222433131927e-06     4.8521059167655e-06
191                       4                      12                       0    5.67204048064241e-08    2.14011936777813e-08    6.42910065143593e-08
192                       6                      14                5.656854     0.00142319729732616    0.000267927006361817    0.000784874594279385
193                       6                      14                2.828427     1.6043602016619e-05    3.40039280993185e-06    1.67498495442296e-05
194                       6                      14                       0    2.84510929624047e-06    6.52665881403496e-07    4.26901068651187e-06
195                       8                      12                5.656854     0.00081574418289842    0.000535900380300431    0.000693207318100751
196                       8                      12                2.828427    0.000198902396355324     0.00013256786081741    0.000305632309180067
197                       8                      12                       0    8.63538300434872e-07    5.77014435985909e-07    1.83310563474358e-06
198                      10                      14                5.656854     -0.0106692301192909      0.0044275046950425     -0.0440770787866226
199                      10                      14                2.828427    0.000168680106957155    8.20973244096668e-05    0.000461286268388846
200                      10                      14                       0    1.62056817266165e-05    7.94483690021842e-06     5.6580276852438e-05
201                      12                      12                5.656854     0.00260702114364775     0.00521886881903606     0.00751127484345544