ITEM: TIMESTEP
0
ITEM: NUMBER OF ATOMS
422
ITEM: BOX BOUNDS ff ff ff
0.0000000000000000e+00 2.3200000000000000e+02
0.0000000000000000e+00 2.3200000000000000e+02
0.0000000000000000e+00 2.3200000000000000e+02
ITEM: ATOMS id xu yu zu fx fy fz
1        113.145932193839        115.983520815677              110.956854     0.00299236238535117    -0.00120673114218954    -0.00389901791014692
2        118.827484840071        115.989226241634              110.956854    -0.00545683457995691    -0.00117587694396661    -0.00352371253871928
3        117.402344993917        115.987795112765              110.956854     0.00273629247531934     0.00258955685826012    -0.00429405732396307
4        114.571072038949        115.984951942936              110.956854     0.00253838396646405     0.00263121631373275    -0.00390058368784139
5        116.701075167769        114.749724850164              110.956854     0.00326226164596702     0.00439852128196244    -0.00412987426977264
6        115.274826990867        114.748292608712              110.956854     0.00368200662492273     0.00440968395574792     -0.0038716665254646
7        115.272341865028        117.223022205388              110.956854      0.0036530900581524     0.00255200388977606    -0.00432374428513617
8        116.698590041422        117.224454446583              110.956854      0.0031976931736733      0.0025054481479809    -0.00457749213866803
9        114.517756920757        113.548446241175              110.956854    -0.00334069631789386    -0.00569801045658443       -0.00453133154383
10        117.460553482731        113.551401403886              110.956854     -0.0131232281678519     -0.0057385990416339    -0.00324290908508992
11        114.512863550773        118.421345651893              110.956854    -0.00327942673999435     -0.0109283846608786    -0.00235778356482882
12        117.455660110655        118.424300814179              110.956854     -0.0127228582517867     -0.0106322255313314     -0.0011104846993777
13        113.127311260236        113.562444587898              110.956854      0.0144882966992966    -0.00715631479927267    -0.00499424097102692
14        113.122448808114        118.404554762274              110.956854      0.0144014567212443    -0.00688760202225448     -0.0031671599098951
15        118.850968226168        113.568192293572              110.956854     -0.0286759506151923    -0.00724893364018007    -0.00280444313887998
16        118.846105771496         118.41030247058              110.956854     -0.0282072222974007    -0.00642768759054776    -0.00104176178772678
17        112.426795838139         117.19431994364              110.956854     0.00351177606053509     0.00736232301049183    -0.00370134985873483
18         112.42922905874        114.771279815063              110.956854     0.00347104831854811     0.00115404675996697     -0.0031618963899138
19        119.546621196692        114.778427112272              110.956854     0.00534154941558011     0.00108896645657644    -0.00486547335095031
20        119.544187975028         117.20146724296              110.956854     0.00517066222383107      0.0070862778601716    -0.00538446787722106
21        120.955135022624        114.824435085822              110.956854         0.1099995702606       0.136581350792527     -0.0213402647656284
22        120.952791362251        117.158288229576              110.956854       0.107924518045424     -0.0461763394380747     -0.0268499139391044
23        111.020625673161        114.814458829493              110.956854    -0.00686337063859421       0.137588637170624     0.00707225008420254
24        111.018282013145        117.148311972274              110.956854    -0.00570488198861779     -0.0419370438494177     0.00120562396841645
25        121.586726460739        115.991997078118              110.956854     -0.0378970689933854      -0.023981919688675     0.00982280480709061
26        110.386690574472        115.980749978664              110.956854     -0.0187634139247688     -0.0256154922313705    -0.00799801703842844
27        121.609196045824        118.185922140926              110.956854      -0.123810551579807     -0.0578029867249705      0.0340776367363894
28          121.6136022867        113.798121569695              110.956854      -0.129499247152304     -0.0519827155976283      0.0213765195741553
29        110.359814750727        118.174625487296              110.956854    -0.00175481007208925     -0.0657148290377702    -0.00553895277303697
30         110.36422099026         113.78682491673              110.956854    0.000972902409161314     -0.0514717760866904     -0.0192804116245551
31        112.599866822243        112.615454800093              110.956854     -0.0299532732558804      0.0121410672158171     0.00394406106732019
32        112.593103500599        119.350483321209              110.956854     -0.0294616617461952      0.0256063694502428     -0.0029572443187457
33        119.380313532952        112.622263734631              110.956854      0.0678360927657718       0.012736925572698    -0.00302392095818569
34        119.373550207142        119.357292260389              110.956854      0.0658915776320916       0.023780171384048    -0.00963728885171645
35        114.962286572867         112.56896056388              110.956854       0.012441088037092       0.006922412548301    0.000508186130870239
36        114.955425108682        119.401722146141              110.956854      0.0122085630247537      0.0178193080883007    -0.00407617078249272
37        117.017991924022        112.571024909739              110.956854       0.011550597946446     0.00702242215516019   -0.000795050002238482
38        117.011130457531        119.403786490585              110.956854      0.0108307896787643      0.0174363197574197    -0.00531491209345484
39                     100                     100              105.656854        0.21214704385646       0.213810928463466      -0.975561005640467
40                     100                     100              102.828427        0.43201988065326       0.430642630176269   -0.000401006017168278
41                     100                     100                     100       0.212165321130084       0.213245964588165       0.976274115777972
42                     102                     102              105.656854      -0.344452762801321      -0.347199315886499      -0.278172074452047
43                     102                     102              102.828427     -0.0508908011189056     -0.0487455786875602    0.000670798198175762
44                     102                     102                     100      -0.344556125652142      -0.346135128816409       0.276981404763975
45                     104                     100              105.656854         0.0958623462767       0.959876182305778      -0.808864850724825
46                     104                     100              102.828427     -0.0639025948763377       0.726925785611521   -0.000250118852269109
47                     104                     100                     100       0.096320677906427       0.959268496871237       0.809298363063419
48                     106                     102              105.656854      -0.149377071163876      -0.514480671855209      -0.381521268484716
49                     106                     102              102.828427        0.14260167735808      0.0661284313041444    0.000261436951434478
50                     106                     102                     100      -0.150514934905224      -0.513507244854341        0.38105554597674
51                     108                     100              105.656854       0.109844771771488        1.06004921715067      -0.802008568331291
52                     108                     100              102.828427      -0.111930600201719        0.63988432006739    0.000329708486505027
53                     108                     100                     100       0.110961379814542         1.0600617796151       0.801399357130973
54                     110                     102              105.656854       -0.14392961545001      -0.582088346543819      -0.373525222610847
55                     110                     102              102.828427       0.148792591306199       0.135082419385746    -0.00104184525552125
56                     110                     102                     100      -0.146211427879675      -0.582867499894433        0.37541986668493
57                     112                     100              105.656854        0.13204452462058        1.10889501073964      -0.811038415089839
58                     112                     100              102.828427      -0.135895884898295       0.588914505708646       0.001231332362124
59                     112                     100                     100       0.133199754454993        1.11029563904377       0.808802307170732
60                     114                     102              105.656854      -0.164336452530313      -0.620275402035196      -0.360684894545889
61                     114                     102              102.828427       0.169280905847264       0.176222616748881    -0.00252021365646585
62                     114                     102                     100      -0.165663653256167      -0.623637198348735       0.365317607182135
63                     116                     100              105.656854       0.166588480182256        1.14472529457518       -0.82172585137543
64                     116                     100              102.828427      -0.170771641840899       0.551393253609182     0.00170639137830337
65                     116                     100                     100       0.166587257944063        1.14694913780636       0.818628719171279
66                     118                     102              105.656854      -0.208960939189442      -0.652472530850597      -0.347252940239683
67                     118                     102              102.828427       0.213807787907185       0.209467147591531    -0.00251816454858405
68                     118                     102                     100      -0.207629644819099      -0.655828782192161       0.351881695334334
69                     120                     100              105.656854       0.222835152610222        1.18297760711167      -0.835605953976248
70                     120                     100              102.828427      -0.228192748262401       0.512407852099768     0.00123045220367814
71                     120                     100                     100       0.221680794590112        1.18437537013881       0.833371475060262
72                     122                     102              105.656854      -0.287925855315708       -0.68825823056962      -0.329996581057044
73                     122                     102              102.828427       0.292643947746604       0.244646037965499    -0.00104075906661799
74                     122                     102                     100      -0.285650312896231      -0.689033537515571       0.331889277168108
75                     124                     100              105.656854       0.326033699543548        1.23669232663932       -0.85220698779507
76                     124                     100              102.828427      -0.322584803683006       0.459499861766583    0.000330791039804424
77                     124                     100                     100       0.324920717695599        1.23670579915821       0.851595805075557
78                     126                     102              105.656854      -0.461384766544257      -0.727280949581958      -0.332088865031834
79                     126                     102              102.828427       0.396813313255985       0.281306383764601    0.000257617751132983
80                     126                     102                     100      -0.460252098552259      -0.726313322132617       0.331630305897913
81                     128                     100              105.656854       0.708168042305449        1.34052347668198      -0.754665848402585
82                     128                     100              102.828427       -0.28076820752086       0.396305904101934   -0.000246984912257369
83                     128                     100                     100       0.707711224417016        1.33991998598338       0.755093742013844
84                     130                     102              105.656854       -1.34063244852241      -0.708373996057908      -0.755611489117019
85                     130                     102              102.828427       -0.39587112157766       0.280599541686535    0.000665319427871591
86                     130                     102                     100       -1.34052869952727      -0.707316924397885       0.754430682485817
87                     100                     104              105.656854       0.958866675853474      0.0995752710726498      -0.808114402629895
88                     100                     104              102.828427        0.72787803142254     -0.0667013531946943    -0.00105108700938585
89                     100                     104                     100       0.958437605671496      0.0982996013902613       0.809990118933408
90                     102                     106              105.656854      -0.513153194289297      -0.155908336352571      -0.383308847663888
91                     102                     106              102.828427      0.0647746815786135       0.147050988517577     0.00193131772942813
92                     102                     106                     100      -0.512328797485173       -0.15336371915397       0.379790190076826
93                     104                     104              105.656854       0.247113057308759       0.251935870253563      -0.388209822905179
94                     104                     104              102.828427      -0.180050243592843      -0.183500844402566    -0.00113006516721499
95                     104                     104                     100       0.247539680266544       0.249865441245844       0.390268570581233
96                     106                     106              105.656854      -0.233125389268347      -0.242196387096581      -0.504892028798134
97                     106                     106              102.828427       0.225756995051739       0.231416716742507     0.00180387422694001
98                     106                     106                     100       -0.23478869411161      -0.238173383108065       0.501242041977622
99                     108                     104              105.656854       0.174020214011269       0.337698902603481      -0.375317192940811
100                     108                     104              102.828427      -0.178220257667543      -0.268098224494743    2.83437129290226e-05
101                     108                     104                     100       0.176953630091933       0.336435655963235       0.375353160351749
102                     110                     106              105.656854      -0.185308891276706      -0.292074285179544      -0.489457353444457
103                     110                     106              102.828427       0.195034085638151       0.285236534594513    -0.00146165754075933
104                     110                     106                     100      -0.192687292385956      -0.291856778695574       0.491932668869645
105                     112                     104              105.656854        0.16863984475584       0.380954263470016      -0.391621815987724
106                     112                     104              102.828427      -0.175709498362976      -0.315809764746951     0.00283360743174161
107                     112                     104                     100       0.172784609396074       0.384271298250835       0.386308328829068
108                     114                     106              105.656854      -0.191080706680626      -0.314943771015585      -0.466416863593697
109                     114                     106              102.828427       0.199643038895686       0.315974303463136    -0.00656073905659495
110                     114                     106                     100      -0.196264202511832      -0.324304128608648       0.479847706999882
111                     116                     104              105.656854       0.198196410589188       0.408922580610949      -0.407418619778432
112                     116                     104              102.828427      -0.203400728089325       -0.34699860427908     0.00455544489462918
113                     116                     104                     100       0.198188002812668       0.415529477696715       0.398715995309629
114                     118                     106              105.656854      -0.238146797901744      -0.337166522533881      -0.450527874873638
115                     118                     106              102.828427       0.241180419700111       0.338875936351495    -0.00654882925732361
116                     118                     106                     100      -0.232937415497605      -0.346496098628639        0.46393092743581
117                     120                     104              105.656854       0.258776494801419       0.437622027134063      -0.422340123811318
118                     120                     104              102.828427      -0.263285687581465      -0.374314050299607     0.00282710364264204
119                     120                     104                     100       0.254635096329217       0.440922065095601       0.417039727239068
120                     122                     106              105.656854      -0.314936804597958      -0.362062005047171      -0.437689104610092
121                     122                     106              102.828427       0.316915754981414        0.35749210679185    -0.00145335705192619
122                     122                     106                     100      -0.307591464284766      -0.361824909272847       0.440149619263126
123                     124                     104              105.656854       0.367217752054837       0.463003089369204      -0.438641736030508
124                     124                     104              102.828427      -0.361450846511273      -0.397308084134913    3.04377290392335e-05
125                     124                     104                     100       0.364299474133253       0.461743157217508       0.438672510601567
126                     126                     106              105.656854      -0.466106559951801      -0.366498892682738      -0.441799419066129
127                     126                     106              102.828427         0.4005838920668       0.359659248147013     0.00179233844424823
128                     126                     106                     100      -0.464457852836132      -0.362497531895943       0.438176771020847
129                     128                     104              105.656854       0.728056319941947       0.461432385181796      -0.330359770395019
130                     128                     104              102.828427      -0.282546909665451      -0.396188826192149    -0.00112135493062847
131                     128                     104                     100       0.727631891056525       0.459375192796035       0.332401873380537
132                     130                     106              105.656854       -1.23723614179971       -0.32716958986789      -0.854138580265335
133                     130                     106              102.828427      -0.458322811538153       0.322793325220061     0.00191759044813715
134                     130                     106                     100       -1.23805430163973      -0.324642107475037       0.850646121343956
135                     100                     108              105.656854        1.06199429253662       0.115718621473337      -0.799303685342264
136                     100                     108              102.828427       0.639095292997641      -0.115984314251249    -0.00230962281474045
137                     100                     108                     100        1.06015856454464       0.113575013391623       0.803481622565418
138                     102                     110              105.656854      -0.586833796564045      -0.153351576223769       -0.37999158293291
139                     102                     110              102.828427       0.136692081603338       0.154509804624463     0.00429097261879131
140                     102                     110                     100      -0.583020855453689       -0.14949240072841       0.371804062389332
141                     104                     108              105.656854       0.336147999500671       0.186039974704125      -0.370555743765363
142                     104                     108              102.828427      -0.266091620407421      -0.185239418524636    -0.00358010009576776
143                     104                     108                     100       0.334709764441727       0.180897670277514       0.377643223444061
144                     106                     110              105.656854      -0.290428504716658      -0.207173218881726      -0.503292711757415
145                     106                     110              102.828427       0.281905136495328       0.205281872712807     0.00615996736784913
146                     106                     110                     100      -0.289238124761879      -0.197625721247275        0.48805483193861
147                     108                     108              105.656854       0.223643308653616       0.241637283559976      -0.360600305614913
148                     108                     108              102.828427      -0.231454557862854      -0.240544840583266    -0.00219540181007457
149                     108                     108                     100       0.229981630740142       0.234656246682133       0.366781031095207
150                     110                     110              105.656854      -0.205003398663507      -0.238291861518693      -0.480809433723948
151                     110                     110              102.828427       0.226214676802938        0.23918169368335   -0.000173185586667937
152                     110                     110                     100      -0.226355905529391      -0.232065881398777       0.476125579716335
153                     112                     108              105.656854       0.189391406145712       0.262782809108409      -0.392204132933721
154                     112                     108              102.828427       -0.20548968077389      -0.272184251082871     0.00597858130888218
155                     112                     108                     100       0.204579972612948       0.268628062726302       0.379553115069604
156                     114                     110              105.656854      -0.199321744513492      -0.233969257902048      -0.423528063008142
157                     114                     110              102.828427       0.217823427113143       0.255171912046108     -0.0147930412602671
158                     114                     110                     100      -0.216696554150865      -0.252253419265111       0.464589349966131
159                     116                     108              105.656854       0.220225263241876       0.272211379513226      -0.420468036933882
160                     116                     108              102.828427      -0.226094101633734      -0.290826084191392      0.0118979547248251
161                     116                     108                     100       0.220179714544147       0.289334806097051       0.392849890464087
162                     118                     110              105.656854      -0.263485441366435      -0.245027232019048      -0.406324681872639
163                     118                     110              102.828427       0.257547330549309       0.266482900427597      -0.014745050806128
164                     118                     110                     100      -0.245980114819536      -0.263211413686905       0.447228673119363
165                     120                     108              105.656854       0.285646246457424       0.296445367792468      -0.426932327030511
166                     120                     108              102.828427      -0.282716861478857      -0.306839285527216     0.00594512132291506
167                     120                     108                     100       0.270475792457512       0.302208741746962       0.414366873474815
168                     122                     110              105.656854      -0.331608003866753      -0.271866158090528      -0.424466595944192
169                     122                     110              102.828427       0.323439846055709       0.273735465755393   -0.000132813649612665
170                     122                     110                     100      -0.310417093033305      -0.265545119263166       0.419698502470693
171                     124                     108              105.656854       0.373226478149122       0.311250514067667      -0.432965264312357
172                     124                     108              102.828427      -0.365515692590116       -0.31244415329267    -0.00219139596195735
173                     124                     108                     100       0.366950238865705       0.304284210144016       0.439113992305808
174                     126                     110              105.656854      -0.444986903602283      -0.263042315143983      -0.431870209973503
175                     126                     110              102.828427       0.381736177269531       0.263009840133065     0.00613195511102584
176                     126                     110                     100      -0.446203398120676      -0.253536469197544       0.416741896902588
177                     128                     108              105.656854       0.690364277723689       0.290145249345656      -0.325860738677137
178                     128                     108              102.828427      -0.247678080825864      -0.292763457625986    -0.00355693452682125
179                     128                     108                     100       0.691796735968176       0.285035566653503        0.33289473443429
180                     130                     110              105.656854       -1.18263497073756      -0.225706445794378        -0.8399578754385
181                     130                     110              102.828427      -0.510809853745396       0.229264507507018     0.00426286455904271
182                     130                     110                     100        -1.1864225977735      -0.221870559300887       0.831830470707536
183                     100                     112              105.656854        1.11588720828459       0.137156592670907      -0.805420760010251
184                     100                     112              102.828427       0.585392402096604      -0.139217719210306    -0.00388950617183132
185                     100                     112                     100        1.11173263914967       0.135212643612062       0.812584019873756
186                     102                     114              105.656854      -0.632611003454928      -0.169172916273463      -0.372438016658747
187                     102                     114              102.828427       0.181244552694469       0.172074939597644     0.00654554758900483
188                     102                     114                     100      -0.625212958750333      -0.167185675865224       0.359528063225525
189                     104                     112              105.656854        0.39122029558751       0.182155798855939      -0.375524512474423
190                     104                     112              102.828427      -0.318229972121267      -0.182655938139863     -0.0075908382704652
191                     104                     112                     100       0.384174420015389       0.176279595232231       0.392183244270727
192                     106                     114              105.656854      -0.329926349386716       -0.20359090308557      -0.502807121135006
193                     106                     114              102.828427       0.317402710537973       0.205277570913996      0.0111533806241519
194                     106                     114                     100      -0.323145521830938      -0.198790855764132       0.471601716301933
195                     108                     112              105.656854       0.257227076073884       0.221072820915953      -0.354752362318269
196                     108                     112              102.828427      -0.265737358856956      -0.217365536932572    -0.00767704841373561
197                     108                     112                     100       0.264672994690551       0.209594188070676       0.385150426979842
198                     110                     114              105.656854      -0.205832713239464      -0.218136257342856      -0.473043096963068
199                     110                     114              102.828427       0.243742389623681       0.226081533150838     0.00195006738707337
200                     110                     114                     100      -0.246948230364491      -0.219995579332349         0.4585237106241
201                     112                     112              105.656854       0.184244984570685       0.225483399118936      -0.418204931735362