ITEM: TIMESTEP
0
ITEM: NUMBER OF ATOMS
422
ITEM: BOX BOUNDS pp pp pp
0.0000000000000000e+00 3.2000000000000000e+01
0.0000000000000000e+00 3.2000000000000000e+01
0.0000000000000000e+00 3.2000000000000000e+01
ITEM: ATOMS id xu yu zu fx fy fz
1        13.1165583067614        15.9541469286001         8.6274761129228    -0.00654184395026527     0.00162791204697687      0.0105150088803368
2        18.8429549490609        16.0046963506242        8.67232010898983      0.0056430978093042   -0.000150151446366383     0.00648859780217812
3        17.4436298780716        16.0290799969196        8.69813488415468    -0.00457298247510111    -0.00109827073662329     0.00892291735647915
4        14.5869301289611        16.0008100329479        8.67270809001209     0.00511418903062859    -3.2646111183479e-05        0.01111115943189
5        16.6573767293339        14.7060264117284        8.61315156156473     -0.0270823984897869      0.0150714643037503       0.047282562594579
6        15.2734513622782        14.7469169801227        8.65547437141081      0.0243566237285586      0.0148143455797449      0.0420586422045127
7        15.2510238483049         17.201704188665        8.63553198327732      0.0253510961198653     -0.0166743258875361      0.0455079957914674
8        16.6779593832659        17.2038237884269        8.63621934184435       -0.02353161184845     -0.0148680049119088       0.039533329270502
9        14.5339040430948        13.5645933635125        8.67299712233738      0.0289136837758076     -0.0235700833356973         0.1386150176574
10         17.439428991873        13.5302769130278         8.6357255091417     -0.0334341544459353     -0.0280067507699804       0.153289165148964
11        14.5343492040106        18.4428313051307         8.6783356532377      0.0282593717146077      0.0234105651821378       0.135099797873796
12        17.4709943836844        18.4396350872081        8.67218427302918     -0.0287595583743789      0.0238921994863048       0.139200472910389
13         13.126419306528        13.5615526341898        8.65595804629225     -0.0371305972670535     -0.0186527070971984       0.105215841062083
14        13.0744211174952        18.3565270716558         8.6088223093815     -0.0456064523368341      0.0176065522338607       0.124055226403541
15        18.8810797738482        13.5983038412523         8.6869615476802      0.0339001344059045     -0.0154680857562885      0.0940240493528765
16        18.8396768365327        18.4038735356169        8.65042106503646      0.0384713359821921      0.0185093009034005       0.114478523166822
17        12.4551670708699        17.2226911763709        8.68522123273091     -0.0143853041833865    -0.00868632558088983      0.0177925917978805
18        12.4102414033584        14.7522921596822        8.63786234461879     -0.0157224262540936     0.00941165069931462      0.0229507551768991
19        19.5677479370305        14.7995538526103        8.67797674033822      0.0137485424097636      0.0086158174966018      0.0169957804832018
20        19.5139453685548        17.1712246364861        8.62660739352657      0.0176835639190811     -0.0112324376146007      0.0263482909629195
21        20.9859247750456        14.8552248382439        8.68763975242152     -0.0231667843428336      0.0196191640319598      0.0500558025945015
22        20.9298429633025        17.1353398306275        8.63390160105173      -0.027017680467623     -0.0219845949315773      0.0579063737025831
23        11.0279961614339        14.8218293177654        8.66422048827279      0.0259184584694622      0.0208298664909714      0.0570539477184136
24        11.0667694728682        17.1967994319965        8.70533745972285      0.0225144532102332     -0.0170811590259962      0.0451034549787039
25        21.5423662639369        15.9476368813151         8.6124898031974    -0.00195855679925227     0.00114225257518195   -0.000142157232607312
26        10.4049503364017        15.9990097405945        8.67510976193008     0.00140661473795693    1.78326730705216e-05    -0.00290011712463739
27        21.6556304004747        18.2323564955771         8.7032843546507    -0.00831961775417094     0.00560783972315065      0.0562516562230645
28        21.6320638778926        13.8165831608871        8.67531159119242    -0.00990925837882363    -0.00493247720976465      0.0637087031395096
29        10.3491827075957        18.1639934441646        8.64621795686825      0.0106331349115701     0.00498740233506707      0.0732081891087006
30        10.3588791224284        13.7814830488976        8.65150813216792      0.0105214048034284    -0.00639920691874913      0.0700625729805118
31        12.6000478218194        12.6156357996701        8.65703099957676   -0.000570116909541799   -0.000557188009603474    -0.00921061287705008
32        12.5852016855447        19.3425815061547        8.64894818494541   -0.000659078473643877     0.00059563332950829    -0.00908601421083333
33        19.3333075719501        12.5752577736295        8.60984403899819    0.000719254274435606   -0.000807727440435469    -0.00884319497110804
34        19.4198899998036        19.4036320530502        8.70318979266124    0.000393904851263528    0.000382461252328822    -0.00948767682995365
35        14.9341642679678        12.5408382589805        8.62872769510093    0.000897711073088808    -0.00162222820065974    -0.00751350956616786
36        14.9721288817468        19.4184259192057        8.67355377306483    0.000782644671059623     0.00134200634293464    -0.00787266645891287
37        16.9907031927046        12.5437361784224        8.62956126868308    -0.00086059775675317    -0.00143460127475388    -0.00784017722252636
38         16.985926346851        19.3785823799046        8.63164588932002    -0.00105327198290154     0.00159843871658716    -0.00737261227122726
39                       0                       0                5.656854                       0                       0                       0
40                       0                       0                2.828427                       0                       0                       0
41                       0                       0                       0                       0                       0                       0
42                       2                       2                5.656854    5.61999157511952e-10    7.92113805062208e-10    2.01341959211047e-10
43                       2                       2                2.828427                       0                       0                       0
44                       2                       2                       0                       0                       0                       0
45                       4                       0                5.656854                       0                       0                       0
46                       4                       0                2.828427                       0                       0                       0
47                       4                       0                       0                       0                       0                       0
48                       6                       2                5.656854    1.78830991984358e-08    3.61669326448238e-08    9.32771370561362e-09
49                       6                       2                2.828427    6.59581906351171e-10    1.35081105906985e-09     6.8191305539682e-10
50                       6                       2                       0                       0                       0                       0
51                       8                       0                5.656854    6.70015275745198e-10    6.69704281387637e-11    4.69428455873352e-10
52                       8                       0                2.828427    3.90478541126911e-10     2.1948962659919e-11    4.95211452581425e-10
53                       8                       0                       0                       0                       0                       0
54                      10                       2                5.656854    7.83167948558133e-08    3.01303469300348e-07    7.96200665895607e-08
55                      10                       2                2.828427    2.84050735325772e-09     1.0968240372026e-08    5.62815911949647e-09
56                      10                       2                       0     9.8602025703563e-10    4.21594829677072e-09    3.27487564843332e-09
57                      12                       0                5.656854    1.37866652044065e-09    3.19579759435682e-10     2.2077562364107e-09
58                      12                       0                2.828427    1.71738027588692e-09    3.40258539558713e-10    5.20035460663462e-09
59                      12                       0                       0                       0                       0                       0
60                      14                       2                5.656854    5.06769782759587e-08    7.52824305990741e-07    2.01761979685842e-07
61                      14                       2                2.828427    1.75085102684703e-09     2.6149118515454e-08    1.36033042276595e-08
62                      14                       2                       0     8.6875238746843e-10    1.11700488787886e-08     8.7610092490523e-09
63                      16                       0                5.656854    1.53027874195224e-11    4.63856150272423e-10    3.34393725593095e-09
64                      16                       0                2.828427    2.52021020234957e-11    5.80794668509465e-10    7.41174279186314e-09
65                      16                       0                       0                       0                       0                       0
66                      18                       2                5.656854   -5.11592925077729e-08     7.5202224572298e-07     2.0156838121136e-07
67                      18                       2                2.828427   -1.76239841482734e-09     2.6116744781232e-08    1.35920029890642e-08
68                      18                       2                       0   -8.39694958099146e-10    1.11730502618907e-08    8.76624240671179e-09
69                      20                       0                5.656854   -1.38481348907005e-09    1.93346771373069e-10    2.23972558490797e-09
70                      20                       0                2.828427   -1.74624760511983e-09    3.28742324615297e-10    5.27443207225364e-09
71                      20                       0                       0                       0                       0                       0
72                      22                       2                5.656854    -7.8368947319377e-08    2.96587506305847e-07    7.83591384796551e-08
73                      22                       2                2.828427    -2.8503947821019e-09    1.08015836976968e-08    5.54988599989549e-09
74                      22                       2                       0   -9.87647410429471e-10    4.14693208691257e-09    3.22718435791893e-09
75                      24                       0                5.656854   -6.79764640515447e-10   -5.14112624673033e-12    4.78673969270952e-10
76                      24                       0                2.828427    -4.1370606061932e-10     2.3777858356932e-11    5.21303806558968e-10
77                      24                       0                       0                       0                       0                       0
78                      26                       2                5.656854    -1.7359565234241e-08     3.4829809003005e-08    8.99467185935974e-09
79                      26                       2                2.828427   -6.01999100188522e-10    1.25453910574384e-09    6.32278714101792e-10
80                      26                       2                       0                       0                       0                       0
81                      28                       0                5.656854                       0                       0                       0
82                      28                       0                2.828427                       0                       0                       0
83                      28                       0                       0                       0                       0                       0
84                      30                       2                5.656854   -5.30063240546788e-10    7.48516273433622e-10    1.91202871161206e-10
85                      30                       2                2.828427                       0                       0                       0
86                      30                       2                       0                       0                       0                       0
87                       0                       4                5.656854    8.74876747069977e-12    3.06771106839727e-10    9.41184375316848e-11
88                       0                       4                2.828427                       0                       0                       0
89                       0                       4                       0                       0                       0                       0
90                       2                       6                5.656854    1.00063618432055e-07    9.16824532966794e-08    3.41720311925257e-08
91                       2                       6                2.828427    3.74196793992407e-09    3.38834463180033e-09    2.45307615487514e-09
92                       2                       6                       0    1.09541884764456e-09    1.01975193917062e-09    1.13376745012358e-09
93                       4                       4                5.656854    1.12385919374678e-08    1.53485421712684e-08    4.67646170018888e-09
94                       4                       4                2.828427    1.35848639470702e-08    1.87670133427965e-08     1.1062599584035e-08
95                       4                       4                       0    1.49127299383441e-10    2.07267880959281e-10    1.88295946662072e-10
96                       6                       6                5.656854    3.31679655226412e-06    4.91140535727017e-06    1.87363843611224e-06
97                       6                       6                2.828427    9.16472995710312e-08    1.33640376814563e-07    9.84114555047779e-08
98                       6                       6                       0    3.56065934475046e-08    5.10755719127863e-08    5.58306169397802e-08
99                       8                       4                5.656854    1.29682827432777e-07    3.04472945513213e-07    9.53084687086459e-08
100                       8                       4                2.828427    1.32529212375346e-07    3.07866464166197e-07    1.86254845731567e-07
101                       8                       4                       0    1.77227451911751e-09    4.12191704965089e-09    3.71592167961203e-09
102                      10                       6                5.656854    2.17753112243264e-05    6.47686290427878e-05    2.60301045515952e-05
103                      10                       6                2.828427    4.53698496380651e-07    1.32501221108667e-06    1.01871298746432e-06
104                      10                       6                       0    1.37830649682485e-07    3.93193346650766e-07    4.41885046359239e-07
105                      12                       4                5.656854    2.66317644475695e-07    1.57820753008635e-06    5.10253845162466e-07
106                      12                       4                2.828427    2.40042665328187e-07    1.38126685787776e-06    8.60072273971772e-07
107                      12                       4                       0    2.99649147155626e-09    1.67792682552237e-08    1.54076417048272e-08
108                      14                       6                5.656854    1.29455474878299e-05    0.000185891158031815    7.72688072523042e-05
109                      14                       6                2.828427    2.64067042590107e-07    3.36187364832244e-06    2.66745902740056e-06
110                      14                       6                       0    7.82756549048607e-08    8.93350920006079e-07    1.03128922227849e-06
111                      16                       4                5.656854    4.41894288146933e-10    2.40001543017146e-06    7.83104219429105e-07
112                      16                       4                2.828427    1.11614693719036e-10    2.05268836340749e-06    1.29138036689783e-06
113                      16                       4                       0   -8.80140492403836e-12    2.42663174696872e-08    2.25086112923565e-08
114                      18                       6                5.656854   -1.30856636500086e-05    0.000186114677392276    7.73451332144206e-05
115                      18                       6                2.828427   -2.68976007538291e-07    3.35820937266839e-06    2.66789034950184e-06
116                      18                       6                       0   -8.04856610571711e-08    8.89875560094243e-07    1.02864507608243e-06
117                      20                       4                5.656854   -2.70016756721776e-07    1.56968912280838e-06    5.07318505086952e-07
118                      20                       4                2.828427   -2.43860720675148e-07    1.37293131238805e-06    8.55958109303399e-07
119                      20                       4                       0   -3.03084264214386e-09    1.66073580293687e-08    1.52797772907821e-08
120                      22                       6                5.656854    -2.1738476172773e-05    6.32449068815776e-05     2.5455591660567e-05
121                      22                       6                2.828427   -4.52320933611583e-07    1.29366022707664e-06    9.97012882584571e-07
122                      22                       6                       0   -1.37008591207988e-07    3.83389387532351e-07    4.31921559266226e-07
123                      24                       4                5.656854   -1.27072263644426e-07     2.9455262736634e-07    9.22997850543983e-08
124                      24                       4                2.828427   -1.29349318991766e-07     2.9734379051325e-07    1.80191187342309e-07
125                      24                       4                       0   -1.76229923918016e-09    4.09275806552771e-09    3.67843142745433e-09
126                      26                       6                5.656854   -3.17934764408363e-06    4.69334495764096e-06    1.79205981329784e-06
127                      26                       6                2.828427   -8.79877118958596e-08    1.27935647232747e-07    9.41559031036196e-08
128                      26                       6                       0   -3.42086318017851e-08    4.91983259103789e-08    5.36355324625042e-08
129                      28                       4                5.656854   -1.07604177708367e-08    1.46716894351795e-08    4.47766200948284e-09
130                      28                       4                2.828427   -1.29985511976537e-08    1.79284265567342e-08    1.05689979115374e-08
131                      28                       4                       0   -1.43534360119409e-10        1.9788285422e-10    1.79918285564314e-10
132                      30                       6                5.656854   -9.58371666815552e-08     8.8172976914282e-08    3.28611609835312e-08
133                      30                       6                2.828427   -3.57761424648061e-09    3.24848360793276e-09    2.34754186888411e-09
134                      30                       6                       0   -1.03191647786923e-09    9.63924777466301e-10    1.06982138139779e-09
135                       0                       8                5.656854    3.73031379812337e-10    1.28086800346557e-08    6.11282097513195e-09
136                       0                       8                2.828427     4.4135007184322e-10    1.45063709944688e-08    1.36034513753792e-08
137                       0                       8                       0    7.05911325355779e-12    1.49511725389639e-10    2.23371520933991e-10
138                       2                      10                5.656854     3.2519068656578e-06    1.64187275929309e-06    1.12594836592285e-06
139                       2                      10                2.828427    9.18291928769234e-08    4.68835230391404e-08    6.13477209783535e-08
140                       2                      10                       0    3.69922642931564e-08    1.89676860215738e-08    3.62670141820546e-08
141                       4                       8                5.656854    1.03541552251821e-06    9.18714583407812e-07    4.51742702139441e-07
142                       4                       8                2.828427    8.62299382617801e-07    7.61516970811419e-07     7.1934040256566e-07
143                       4                       8                       0    1.00360864105671e-08    8.81077307416235e-09    1.22345878665932e-08
144                       6                      10                5.656854    0.000282588620056152    0.000240762600216501    0.000174714787969633
145                       6                      10                2.828427    4.01849287693462e-06    3.39222160376763e-06    4.64179729449662e-06
146                       6                      10                       0    8.84121578261954e-07    7.38729620460366e-07    1.45158794238359e-06
147                       8                       8                5.656854    2.34820833197946e-05    3.95622855205886e-05    2.03890409093604e-05
148                       8                       8                2.828427    1.22484297342074e-05    1.99053062261325e-05    1.95969460262364e-05
149                       8                       8                       0    9.27675769630747e-08     1.4583324527564e-07    2.08891301267761e-07
150                      10                      10                5.656854     0.00286958671754263     0.00575255023017374     0.00456549552021239
151                      10                      10                2.828427    2.44055619978167e-05    4.66695087713776e-05    6.86192711311617e-05
152                      10                      10                       0    3.53897216206802e-06    6.36141573341001e-06    1.32192417842014e-05
153                      12                       8                5.656854    6.33264698245465e-05    0.000290777135238629    0.000163298063759861
154                      12                       8                2.828427    2.40892945085801e-05    0.000105079504483292    0.000110408962687724
155                      12                       8                       0    1.45335180056334e-07    5.95581482040424e-07    8.95633098899884e-07
156                      14                      10                5.656854     0.00108860141178258      0.0152238072437018      0.0133432393169804
157                      14                      10                2.828427    1.02180345588101e-05    0.000112028202383008    0.000179166116774493
158                      14                      10                       0    1.58507027986148e-06    1.34430500015765e-05    2.96573612317409e-05
159                      16                       8                5.656854    3.44478581739521e-07    0.000434482056902294    0.000250067077113357
160                      16                       8                2.828427    8.26302777283542e-09    0.000151013142812109    0.000162682131395532
161                      16                       8                       0   -1.05562448845313e-09    8.29017469201959e-07    1.27434013417034e-06
162                      18                      10                5.656854    -0.00116235105343464      0.0150973991198113      0.0132662336108373
163                      18                      10                2.828427   -1.08923590283842e-05    0.000111223139328186    0.000178566271730123
164                      18                      10                       0   -1.67700882862697e-06    1.33146566506168e-05    2.94446333414989e-05
165                      20                       8                5.656854   -6.48013408009205e-05    0.000288154064742636    0.000162311640263745
166                      20                       8                2.828427      -2.45312541249e-05     0.00010355083470729    0.000109227873415245
167                      20                       8                       0   -1.47220067396375e-07    5.85625886574165e-07    8.83023667212449e-07
168                      22                      10                5.656854    -0.00281324485234691     0.00553945843911738     0.00440427950094171
169                      22                      10                2.828427   -2.39325772532904e-05    4.50872255600397e-05    6.62974736224304e-05
170                      22                      10                       0   -3.47830422980419e-06    6.19680778058615e-06    1.28503785881608e-05
171                      24                       8                5.656854   -2.26052262464856e-05    3.77810346573346e-05    1.94839371639789e-05
172                      24                       8                2.828427   -1.18530832498713e-05     1.9119718014428e-05    1.88113171363495e-05
173                      24                       8                       0   -9.02752467966143e-08     1.4103876738643e-07    2.01744678392849e-07
174                      26                      10                5.656854   -0.000270224563480412     0.00023202415953322     0.00016748938807759
175                      26                      10                2.828427   -3.86429200669919e-06    3.28784294918157e-06    4.46210729692317e-06
176                      26                      10                       0   -8.56476616034883e-07     7.2135359874624e-07    1.40499383619565e-06
177                      28                       8                5.656854    -9.9073463776595e-07    8.83044868942662e-07    4.33513145696209e-07
178                      28                       8                2.828427   -8.26243010343334e-07    7.32733929457645e-07    6.89443270954804e-07
179                      28                       8                       0   -9.66354708594107e-09    8.52207635634868e-09    1.17737812557636e-08
180                      30                      10                5.656854   -3.14969207366786e-06    1.60373953197458e-06    1.09389049306617e-06
181                      30                      10                2.828427   -8.90204627796289e-08     4.5884355134072e-08     5.9531467082145e-08
182                      30                      10                       0   -3.59907871485487e-08    1.86360721170555e-08    3.52823705875517e-08
183                       0                      12                5.656854    2.36326876154531e-09    6.06980372595853e-08    6.44609981908428e-08
184                       0                      12                2.828427    2.40884860374061e-09    6.79109486344449e-08    1.36600859254227e-07
185                       0                      12                       0   -1.28324185143094e-10     9.3933866748109e-10    2.77328071954814e-09
186                       2                      14                5.656854    1.87645852076507e-05    2.64342101219015e-06    6.50902680659527e-06
187                       2                      14                2.828427    4.53542324637638e-07    6.78176065972069e-08    3.04007238353625e-07
188                       2                      14                       0    1.57610256390953e-07    2.47453430677627e-08    1.54147445772205e-07
189                       4                      12                5.656854    2.34682585026846e-05    8.83279375421063e-06    1.04839006284669e-05
190                       4                      12                2.828427    1.29222857284862e-05    5.05525707680013e-06    1.10120383678703e-05
191                       4                      12                       0    1.02363670943192e-07    4.13951347392863e-08    1.26748779624128e-07
192                       6                      14                5.656854     0.00311351073063209    0.000626149708531242     0.00196309212500462
193                       6                      14                2.828427    2.91051345395935e-05    6.65571459126135e-06    3.44027918741595e-05
194                       6                      14                       0     4.4656963563322e-06     1.1124034685395e-06    7.50325113116129e-06
195                       8                      12                5.656854     0.00131912387026336     0.00102692937008141     0.00135081490808089
196                       8                      12                2.828427    0.000286764018362924    0.000220267257757812    0.000519045654122579
197                       8                      12                       0    1.13542024638648e-06    8.58548082714706e-07    2.77963882472713e-06
198                      10                      14                5.656854     -0.0190352560968124     -0.0067545059553552       -0.13528862950119
199                      10                      14                2.828427    0.000183025280049349    0.000107824848853658    0.000633382038596392
200                      10                      14                       0    1.72878139214152e-05    9.98139901811237e-06    7.34044712727275e-05
201                      12                      12                5.656854     0.00183078802891928     0.00555584432871458     0.00785318194173914