ITEM: TIMESTEP
0
ITEM: NUMBER OF ATOMS
422
ITEM: BOX BOUNDS ff ff ff
0.0000000000000000e+00 2.3200000000000000e+02
0.0000000000000000e+00 2.3200000000000000e+02
0.0000000000000000e+00 2.3200000000000000e+02
ITEM: ATOMS id xu yu zu fx fy fz
1        115.145932193839        115.983520815677              108.656854     0.00899512791006082   -0.000939579930354914     0.00133831986766652
2        120.827484840071        115.989226241634              108.656854     -0.0117018133897523    -0.00100803589630639     0.00120275271083506
3        119.402344993917        115.987795112765              108.656854     0.00500671882273337     0.00294322412052006     0.00185091202258031
4        116.571072038949        115.984951942936              108.656854     0.00113022092482268     0.00306010387628408     0.00198768605538256
5        118.701075167769        114.749724850164              108.656854      0.0290364445662162      0.0320324837001691      0.0946455476944784
6        117.274826990867        114.748292608712              108.656854     -0.0213815801719331      0.0314241514819985      0.0927239017573129
7        117.272341865028        117.223022205388              108.656854     -0.0207280591664907     -0.0239513642217598      0.0892617192666615
8        118.698590041422        117.224454446583              108.656854      0.0281923019708282     -0.0248030668714071      0.0918764312764387
9        116.517756920757        113.548446241175              108.656854     -0.0324261121434524     -0.0191213117641437      0.0365249051247184
10        119.460553482731        113.551401403886              108.656854      0.0143805814130013     -0.0192325747962079       0.039727356381884
11        116.512863550773        118.421345651893              108.656854     -0.0322468944967372   -4.79144606939652e-05       0.038868161836146
12        119.455660110655        118.424300814179              108.656854      0.0156403171185634    0.000910433182914991      0.0427074188147849
13        115.127311260236        113.562444587898              108.656854       0.053927768796865     -0.0252273755875974      0.0754609611226364
14        115.122448808114        118.404554762274              108.656854      0.0547638020835546     0.00856401291505193      0.0792999203235719
15        120.850968226168        113.568192293572              108.656854     -0.0701016989335396     -0.0244907849534022      0.0749730227296991
16        120.846105771496         118.41030247058              108.656854     -0.0696127651994865     0.00898177231272715      0.0768070765262157
17        114.426795838139         117.19431994364              108.656854      0.0210699512974161     -0.0257836506991737       0.110379250254099
18         114.42922905874        114.771279815063              108.656854      0.0218448167663608      0.0349734074037047       0.114994181559555
19        121.546621196692        114.778427112272              108.656854     -0.0121439287459767      0.0342853763936683       0.110847399232174
20        121.544187975028         117.20146724296              108.656854     -0.0120605415461998     -0.0256581610336348       0.107776492557857
21        122.955135022624        114.824435085822              108.656854       0.110868607841818       0.124683866933468      0.0298040722107709
22        122.952791362251        117.158288229576              108.656854       0.107309884693864     -0.0289594526596977      0.0252703403076714
23        113.020625673161        114.814458829493              108.656854      0.0120365201419823       0.128394897127268       0.055617416038742
24        113.018282013145        117.148311972274              108.656854      0.0136423485457436     -0.0200720725022724      0.0499994515356169
25        123.586726460739        115.991997078118              108.656854     -0.0325735914048752     -0.0248820466846906     -0.0348092629985372
26        112.386690574472        115.980749978664              108.656854     -0.0345805057619042     -0.0282019942047079     -0.0520035488533608
27        123.609196045824        118.185922140926              108.656854      -0.106361245461392     -0.0449280477799737       0.049441688270697
28          123.6136022867        113.798121569695              108.656854      -0.114876388975343     -0.0721766292155789      0.0390010396084337
29        112.359814750727        118.174625487296              108.656854      -0.040170259407886     -0.0592847960516456      0.0110485272240802
30         112.36422099026         113.78682491673              108.656854     -0.0390978265011663     -0.0767644334456763     -0.0010992031511633
31        114.599866822243        112.615454800093              108.656854     -0.0399868771936957      0.0247057850209036    -0.00378076019010789
32        114.593103500599        119.350483321209              108.656854     -0.0400583828553216      0.0176153123146387    -0.00985656848372764
33        121.380313532952        112.622263734631              108.656854       0.084987249125861      0.0246639674327392    -0.00997921679718512
34        121.373550207142        119.357292260389              108.656854       0.081997202000825      0.0146593654576842     -0.0152328433507043
35        116.962286572867         112.56896056388              108.656854      0.0238101653262117      0.0148897388011084   -0.000871688397905912
36        116.955425108682        119.401722146141              108.656854      0.0229418110988767       0.012454364915838     -0.0046826106538822
37        119.017991924022        112.571024909739              108.656854     0.00413312291542933      0.0148107160498424    -0.00232327932299485
38        119.011130457531        119.403786490585              108.656854     0.00284388381282941      0.0119512473729727    -0.00616322340202199
39                     100                     100              105.656854       0.212490693746749       0.213869249408045      -0.975705268247222
40                     100                     100              102.828427       0.431720872603237         0.4304847920796   -0.000351816641612472
41                     100                     100                     100       0.212389458475426       0.213434778930537        0.97631205204854
42                     102                     102              105.656854      -0.345112102256804      -0.347371390961433      -0.277922026732015
43                     102                     102              102.828427     -0.0503578708831028     -0.0483973003631432     0.00064391235688213
44                     102                     102                     100        -0.3449101551809      -0.346494455679231       0.276844909665713
45                     104                     100              105.656854      0.0963670577727106       0.960304568752727       -0.80889284780723
46                     104                     100              102.828427     -0.0642348478416339       0.726461706158374   -0.000367420013501793
47                     104                     100                     100      0.0964912804246128       0.959663288036107       0.809498061158793
48                     106                     102              105.656854      -0.150274409125142      -0.515509573561544      -0.381605858314674
49                     106                     102              102.828427       0.143068897583022      0.0670882290079791    0.000638769827822773
50                     106                     102                     100      -0.150657403256489      -0.514204519398433         0.3805949564549
51                     108                     100              105.656854       0.110057559518163        1.06106789081058      -0.801689206423077
52                     108                     100              102.828427       -0.11188255711312       0.639097278152558   -8.07975122035291e-05
53                     108                     100                     100       0.110775146436273        1.06058215518535       0.801780658104223
54                     110                     102              105.656854      -0.143712342966803      -0.584114073552104      -0.374432687876269
55                     110                     102              102.828427       0.148181766644033        0.13636952133185   -0.000152221566470766
56                     110                     102                     100      -0.145547918806477      -0.583558575776561       0.374764352001376
57                     112                     100              105.656854       0.131161188335642        1.10984811347933      -0.810346663572414
58                     112                     100              102.828427      -0.134994255572657       0.588430220232294    0.000703597892605141
59                     112                     100                     100       0.132444562949299        1.11049251742732       0.809124105903657
60                     114                     102              105.656854        -0.1618265996537      -0.620891009745278      -0.361951542919273
61                     114                     102              102.828427          0.167223947466       0.176151772973957     -0.0019127996490165
62                     114                     102                     100      -0.164227251674493        -0.6233961937775        0.36514528376222
63                     116                     100              105.656854       0.164989335035848        1.14421788538872      -0.821144242941405
64                     116                     100              102.828427      -0.169520304302674       0.552075587099935     0.00154907742707952
65                     116                     100                     100       0.165706384231597        1.14637662684385       0.818536952475151
66                     118                     102              105.656854      -0.206711041865825      -0.649838301880072      -0.347663615093623
67                     118                     102              102.828427       0.212318715732634       0.207303633201127    -0.00296942174539481
68                     118                     102                     100      -0.206707026012665      -0.654442668943829       0.352556351040363
69                     120                     100              105.656854       0.222153004934556        1.18119258377129      -0.835525587493188
70                     120                     100              102.828427      -0.227786168059851       0.513888004097246     0.00154818759588232
71                     120                     100                     100       0.221434380330418        1.18334869996352       0.832919726367409
72                     122                     102              105.656854      -0.288444869785394      -0.685179755785269      -0.329558475310403
73                     122                     102              102.828427       0.293211410083597       0.242456588891819    -0.00190969445785347
74                     122                     102                     100      -0.286046582243448      -0.687676061319301       0.332747175351842
75                     124                     100              105.656854       0.326637769533154        1.23534694529221      -0.852416872247066
76                     124                     100              102.828427      -0.323159667899007       0.460528470217365    0.000703476851135713
77                     124                     100                     100       0.325357715670322        1.23598996454881       0.851194547365782
78                     126                     102              105.656854      -0.463023498433483      -0.726437777750139      -0.331670597100177
79                     126                     102              102.828427       0.398151081340875       0.280724511213439   -0.000154457377579917
80                     126                     102                     100      -0.461196334639632      -0.725885899222486       0.332005681887414
81                     128                     100              105.656854       0.708987311491794         1.3402530378605      -0.754855807752686
82                     128                     100              102.828427      -0.281484402090297       0.396487304441578   -7.82050586412721e-05
83                     128                     100                     100       0.708272541500492        1.33977127725508       0.754943110620265
84                     130                     102              105.656854       -1.34154379025869      -0.708833461943138      -0.755416686565842
85                     130                     102              102.828427      -0.395086317154143       0.280987303300191    0.000632707597001968
86                     130                     102                     100       -1.34116209490857      -0.707538210098512       0.754415416728956
87                     100                     104              105.656854       0.959443045943156      0.0994508699036596      -0.808593830627025
88                     100                     104              102.828427       0.727293881511787     -0.0668570388551128   -0.000839111952233699
89                     100                     104                     100       0.958897336628629      0.0985502093411602        0.81001156536639
90                     102                     106              105.656854        -0.5144055889063      -0.155780895223984       -0.38231393206772
91                     102                     106              102.828427      0.0659531306235099       0.147482117162124     0.00167162339504098
92                     102                     106                     100      -0.513129966633967      -0.153869883181834       0.379577398836105
93                     104                     104              105.656854       0.248499453597346       0.252473340468803      -0.388635554626006
94                     104                     104              102.828427      -0.181035738678247      -0.184313651614608     -0.0012619048267838
95                     104                     104                     100        0.24807711140809       0.250556882093179       0.390677201962857
96                     106                     106              105.656854       -0.23637100903439      -0.244060469094145      -0.504345033632033
97                     106                     106              102.828427       0.227570671148047       0.233395144304955     0.00266029696595109
98                     106                     106                     100      -0.235477442177645      -0.239468470586213       0.500123454370455
99                     108                     104              105.656854       0.175506849222344       0.340379942085417      -0.374665426321273
100                     108                     104              102.828427       -0.17863392011949       -0.27009997545483    -0.00110332807822395
101                     108                     104                     100       0.176810667913069       0.337601961893744       0.376359955303025
102                     110                     106              105.656854      -0.186514635659684      -0.299300970041976      -0.492621864933339
103                     110                     106              102.828427       0.194175061381272       0.289080931860397     0.00161727933280628
104                     110                     106                     100      -0.191479477847166       -0.29350549637094       0.490018020558972
105                     112                     104              105.656854       0.166234648734367       0.384362839625195      -0.389263780338806
106                     112                     104              102.828427       -0.17333817799588      -0.317366920274766     0.00122905704745908
107                     112                     104                     100       0.171038397855168       0.384854475085198        0.38715663363082
108                     114                     106              105.656854      -0.181351171968181      -0.316572764664243      -0.470705318491106
109                     114                     106              102.828427       0.193267003637747       0.315857538130199    -0.00521175326119712
110                     114                     106                     100      -0.192718042299609      -0.323921756479713       0.479654415187095
111                     116                     104              105.656854       0.192768674058516       0.406439484180867      -0.405943891976493
112                     116                     104              102.828427      -0.199768590819413      -0.344774512023089     0.00480188808796382
113                     116                     104                     100       0.196048320291827       0.414179136163439       0.398047566814853
114                     118                     106              105.656854      -0.231050834409219       -0.32478502362602      -0.449056133953436
115                     118                     106              102.828427       0.237434126047553       0.332235303531349     -0.0102661325487877
116                     118                     106                     100      -0.231018878984394      -0.343494076111124       0.466647937042704
117                     120                     104              105.656854       0.257750317314812       0.430922518297725      -0.423229179153993
118                     120                     104              102.828427      -0.262944521300217      -0.370041710273655     0.00479454206611335
119                     120                     104                     100       0.254457003826246       0.438641802389881       0.415345030844427
120                     122                     106              105.656854      -0.320688195694306      -0.352160424499642       -0.43377482248666
121                     122                     106              102.828427       0.320503596696616       0.352531773174334    -0.00518789391207495
122                     122                     106                     100      -0.309340590705482      -0.359440296537314       0.442680136461018
123                     124                     104              105.656854       0.370551493870412       0.460166771450562      -0.439778782505381
124                     124                     104              102.828427      -0.363882933979876      -0.395520253460701     0.00122569098622925
125                     124                     104                     100       0.365768250199256        0.46064909186628       0.437677207475487
126                     126                     106              105.656854      -0.471704674040586      -0.368254312765193      -0.441076732502876
127                     126                     106              102.828427       0.404427805607298       0.360358706499236     0.00160648465286106
128                     126                     106                     100       -0.46678342502303      -0.362489356444049       0.438493180629194
129                     128                     104              105.656854       0.730139122601982       0.462367763711364      -0.330705569940977
130                     128                     104              102.828427      -0.284216737771957      -0.396811399479898    -0.00109339865334616
131                     128                     104                     100       0.728844062538837       0.459609589061696       0.332384402608081
132                     130                     106              105.656854       -1.23809405182482      -0.330108677582671      -0.854239925021755
133                     130                     106              102.828427      -0.457370661609329       0.324677290801169     0.00263837784490003
134                     130                     106                     100       -1.23898007670517      -0.325554693630241       0.850053462342342
135                     100                     108              105.656854        1.06266864899081       0.115247403769499      -0.800590853699496
136                     100                     108              102.828427       0.638112234888547      -0.116072105051157    -0.00172352551125134
137                     100                     108                     100        1.06098331855057       0.113843580739003       0.803448646416555
138                     102                     110              105.656854      -0.588525162170516      -0.152715316016175      -0.377140559066125
139                     102                     110              102.828427       0.138860387314686       0.154892735513739     0.00349760625755841
140                     102                     110                     100      -0.584512418405532      -0.150012061506292        0.37149284363869
141                     104                     108              105.656854       0.339333160908917       0.186222501758814      -0.372714810353624
142                     104                     108              102.828427      -0.268622708155699      -0.186423234007755    -0.00359332448929235
143                     104                     108                     100       0.336062060762321       0.181883103740728       0.378469153426051
144                     106                     110              105.656854      -0.300329499459416      -0.209569790649278      -0.499246696677838
145                     106                     110              102.828427       0.287349509449154       0.208306851883475     0.00822749379240555
146                     106                     110                     100       -0.29118279185205      -0.199315601479932       0.485567205884528
147                     108                     108              105.656854       0.231927652714057       0.248975199319547      -0.359490480440789
148                     108                     108              102.828427      -0.234248213752548      -0.245256936696614    -0.00590781605138943
149                     108                     108                     100       0.230331380426277       0.236819500438398        0.36951355220206
150                     110                     110              105.656854      -0.221452645939219      -0.267097378550495       -0.50019848405451
151                     110                     110              102.828427       0.226802159879363       0.248161602629267      0.0122261241410277
152                     110                     110                     100      -0.224564807902369      -0.234721165841075       0.470886475975466
153                     112                     108              105.656854       0.180784969709596       0.278771276992182      -0.380678972359964
154                     112                     108              102.828427      -0.198855769881012      -0.277281683910696   -0.000143017744319098
155                     112                     108                     100       0.200716317901934       0.270071173735822       0.382054390248931
156                     114                     110              105.656854      -0.144589245807734       -0.22700721265374      -0.424338821411521
157                     114                     110              102.828427        0.19879674827489          0.255873738598     -0.0116665544770557
158                     114                     110                     100      -0.209014557463709      -0.251942784314327       0.464309982486924
159                     116                     108              105.656854        0.19841062771909       0.257196690542913      -0.421602111959306
160                     116                     108              102.828427      -0.215139637728677      -0.284468352140347      0.0163192255763864
161                     116                     108                     100       0.215205625382407       0.286882316628881       0.390139989607845
162                     118                     110              105.656854      -0.242721742405158      -0.183140894578101      -0.356058310823215
163                     118                     110              102.828427        0.24932869963371       0.253863462932292     -0.0330338298927276
164                     118                     110                     100      -0.242515992451057      -0.259060380539796       0.455043528161852
165                     120                     108              105.656854       0.287927213447474       0.268738215432821      -0.440401705502752
166                     120                     108              102.828427      -0.284465205596051      -0.296259177517021      0.0162681401561136
167                     120                     108                     100       0.271021840546499       0.298283338706826       0.409048968310027
168                     122                     110              105.656854      -0.379696335441421      -0.238475850664653      -0.385925464343209
169                     122                     110              102.828427       0.337996375063562       0.267171806277382     -0.0115227322367373
170                     122                     110                     100       -0.31537623377436      -0.262826037239606       0.425305221218801
171                     124                     108              105.656854       0.390737012744649       0.312059943259732      -0.436020737135043
172                     124                     108              102.828427      -0.374319922276126      -0.311598729855929   -0.000165494871401281
173                     124                     108                     100       0.370975981553084       0.303322809079184       0.437422592131104
174                     126                     110              105.656854      -0.453619759233379      -0.286650633123838      -0.444531640058468
175                     126                     110              102.828427       0.389452390299147       0.268522079416013       0.012167799840936
176                     126                     110                     100      -0.450688628441616      -0.254488920688412       0.415491211653068
177                     128                     108              105.656854       0.692256470149043       0.298305960513869      -0.324085778893633
178                     128                     108              102.828427      -0.250146835479566      -0.296406756895234    -0.00586255279313383
179                     128                     108                     100       0.693851824679576        0.28625456396743       0.334019145122712
180                     130                     110              105.656854       -1.17813117095232      -0.233622461199692      -0.843106373502112
181                     130                     110              102.828427      -0.511571433053735       0.233233609550984     0.00815954663439759
182                     130                     110                     100       -1.18719520896127      -0.223457863397987        0.82955245390147
183                     100                     112              105.656854        1.11632107392366       0.136615018850834      -0.807908399415445
184                     100                     112              102.828427       0.584029944880334      -0.139232712327887    -0.00278638748613219
185                     100                     112                     100        1.11294730556271       0.135397430261574       0.812474131809613
186                     102                     114              105.656854      -0.634354522254618      -0.168788598503096      -0.367500516321239
187                     102                     114              102.828427       0.184275414444692       0.172236734542766     0.00520632668883803
188                     102                     114                     100      -0.627298930045094      -0.167416745726086       0.359132783196149
189                     104                     112              105.656854       0.396555238104877       0.181879986641928       -0.38173713521583
190                     104                     112              102.828427      -0.323134826258745      -0.183697096606804    -0.00734123192701028
191                     104                     112                     100       0.386666548847402       0.177105920259321       0.393594995072121
192                     106                     114              105.656854      -0.348882257097273      -0.205164423106369       -0.49362668398185
193                     106                     114              102.828427       0.327203732757149       0.206862286373434      0.0148757596003203
194                     106                     114                     100      -0.326399994858763      -0.199615958560042       0.467678980252609
195                     108                     112              105.656854       0.292509485634213       0.233474282157372      -0.351207096330128
196                     108                     112              102.828427      -0.274906610828624      -0.223032035870098     -0.0182747062357503
197                     108                     112                     100       0.266150376775703       0.211702612414183       0.390954755883425
198                     110                     114              105.656854      -0.263979213583161      -0.222789957987099      -0.556293390230015
199                     110                     114              102.828427        0.24675966971772         0.2300066286083      0.0292910459746632
200                     110                     114                     100      -0.244695686979723      -0.221262883463749       0.449559333671679
201                     112                     112              105.656854       0.152903778199967       0.291511896482268      -0.299676341861909