ITEM: TIMESTEP
0
ITEM: NUMBER OF ATOMS
422
ITEM: BOX BOUNDS ff ff ff
0.0000000000000000e+00 2.3200000000000000e+02
0.0000000000000000e+00 2.3200000000000000e+02
0.0000000000000000e+00 2.3200000000000000e+02
ITEM: ATOMS id xu yu zu fx fy fz
1        113.145932193839        115.983520815677              111.956854     0.00303247798928985    -0.00114015845614412    -0.00112568063929139
2        118.827484840071        115.989226241634              111.956854    -0.00535239760595148    -0.00111187701200979   -0.000734274083859414
3        117.402344993917        115.987795112765              111.956854     0.00250637912847402     0.00245101543991837    -0.00155598216205913
4        114.571072038949        115.984951942936              111.956854     0.00247387633530437     0.00249061738348886    -0.00114268571270322
5        116.701075167769        114.749724850164              111.956854     0.00296329839355159     0.00431974944768322    -0.00134912764821976
6        115.274826990867        114.748292608712              111.956854     0.00360362236191686     0.00433031959000878    -0.00107562115760577
7        115.272341865028        117.223022205388              111.956854     0.00357662828309679     0.00224587536820032     -0.0015512119629713
8        116.698590041422        117.224454446583              111.956854     0.00290305888780074     0.00220224787388393    -0.00182041524412389
9        114.517756920757        113.548446241175              111.956854    -0.00297033246304821    -0.00518938150689403    -0.00190388320519305
10        117.460553482731        113.551401403886              111.956854     -0.0125784839269776    -0.00522838362679128   -0.000559765335110765
11        114.512863550773        118.421345651893              111.956854    -0.00291182163144163     -0.0104761676719041    0.000353711483113455
12        117.455660110655        118.424300814179              111.956854     -0.0122018061531056     -0.0101989277908969     0.00165663164070282
13        113.127311260236        113.562444587898              111.956854      0.0149395417584064    -0.00673537690737437    -0.00231553310227725
14        113.122448808114        118.404554762274              111.956854      0.0148579445154585     -0.0064954902362935   -0.000416638182168319
15        118.850968226168        113.568192293572              111.956854     -0.0282917283130032     -0.0068256518734561   -4.20779688313481e-05
16        118.846105771496         118.41030247058              111.956854       -0.02785193827896    -0.00606675880362097     0.00178937181422599
17        112.426795838139         117.19431994364              111.956854     0.00317946545588352     0.00699583700691378   -0.000960962338537552
18         112.42922905874        114.771279815063              111.956854     0.00314106313203152     0.00104923412904671   -0.000391727413135701
19        119.546621196692        114.778427112272              111.956854     0.00513396352683229    0.000988592494907385    -0.00215814179464334
20        119.544187975028         117.20146724296              111.956854     0.00497360853351498     0.00673695057575327    -0.00270247748437484
21        120.955135022624        114.824435085822              111.956854       0.105095040054124        0.13502789524754     -0.0188727647496409
22        120.952791362251        117.158288229576              111.956854       0.103164024251793     -0.0495554657589168     -0.0246417968980297
23        111.020625673161        114.814458829493              111.956854     -0.0090709868873176       0.135962807428717      0.0105398705935065
24        111.018282013145        117.148311972274              111.956854     -0.0079715790103312     -0.0455892234928672     0.00437663216035183
25        121.586726460739        115.991997078118              111.956854     -0.0353118596633531     -0.0227005406035617      0.0119129195185745
26        110.386690574472        115.980749978664              111.956854     -0.0171811930503762     -0.0242390249085405     -0.0064614984329832
27        121.609196045824        118.185922140926              111.956854      -0.118186069414952     -0.0549905572153181      0.0349317584227764
28          121.6136022867        113.798121569695              111.956854      -0.123511778902977     -0.0485882660666997      0.0217178175342626
29        110.359814750727        118.174625487296              111.956854     0.00190021314489898     -0.0623765999316107    -0.00591160440617338
30         110.36422099026         113.78682491673              111.956854      0.0044545545484403     -0.0480842424057228     -0.0201877863491537
31        112.599866822243        112.615454800093              111.956854     -0.0312695978463702      0.0108208426645607     0.00463898085749614
32        112.593103500599        119.350483321209              111.956854     -0.0308066705571792      0.0246404849618737    -0.00251429633807671
33        119.380313532952        112.622263734631              111.956854      0.0668572911050132      0.0113850001151971    -0.00258378154666715
34        119.373550207142        119.357292260389              111.956854      0.0650368376443272      0.0229327088915353    -0.00943725287741307
35        114.962286572867         112.56896056388              111.956854      0.0120411895893676     0.00604568793643799     0.00135043092559173
36        114.955425108682        119.401722146141              111.956854       0.011821924102619      0.0171965763030277    -0.00339780951082763
37        117.017991924022        112.571024909739              111.956854      0.0106343583012528     0.00613933069608201   -1.44872703664751e-05
38        117.011130457531        119.403786490585              111.956854     0.00995782862689706      0.0168364428363961    -0.00470218040493657
39                     100                     100              105.656854       0.212140688861287       0.213708316390015      -0.975534883043197
40                     100                     100              102.828427       0.432014663665149       0.430744026525745   -0.000390096147895386
41                     100                     100                     100         0.2121829845378       0.213165462501244       0.976244330475376
42                     102                     102              105.656854      -0.344447163519289      -0.346985642749928      -0.278196050190917
43                     102                     102              102.828427     -0.0508665404385178     -0.0489312431467091    0.000624691243991277
44                     102                     102                     100      -0.344603334574243      -0.346007033434287       0.277048168505156
45                     104                     100              105.656854      0.0959306863549827       0.959753005007896      -0.808862051803122
46                     104                     100              102.828427     -0.0639880961479756       0.727031658211653   -0.000220802114744274
47                     104                     100                     100       0.096407483684015       0.959197716284613       0.809262088515317
48                     106                     102              105.656854      -0.149568969248173      -0.514251716163568      -0.381491158938005
49                     106                     102              102.828427       0.142809332416332      0.0659681794652872    0.000191653151906938
50                     106                     102                     100      -0.150696878747064      -0.513423321050641       0.381113641059467
51                     108                     100              105.656854       0.110044647225163        1.06003695498234      -0.802047232545517
52                     108                     100              102.828427      -0.112131224796767       0.639878437344224    0.000352156979543041
53                     108                     100                     100       0.111127440210992        1.06008151017306       0.801395609506479
54                     110                     102              105.656854      -0.144389609294472      -0.582230826436379      -0.373457055378398
55                     110                     102              102.828427       0.149188680896878       0.135221596732614    -0.00102946218784301
56                     110                     102                     100      -0.146494119644891      -0.582980198093567       0.375368521267447
57                     112                     100              105.656854       0.132267206172007        1.10917254035489      -0.811109034338613
58                     112                     100              102.828427      -0.136099397100191       0.588670030236344     0.00120152471122496
59                     112                     100                     100       0.133352534908442        1.11047413584315        0.80887271233778
60                     114                     102              105.656854      -0.164619599788516      -0.621033054185064      -0.360640218315036
61                     114                     102              102.828427       0.169506846195574       0.176781956627959    -0.00235299824185652
62                     114                     102                     100      -0.165812502634176      -0.623984082499479       0.365119127236369
63                     116                     100              105.656854       0.166588219732379        1.14518268706188      -0.821805503353338
64                     116                     100              102.828427      -0.170771433620647       0.551009594350913     0.00164012002638482
65                     116                     100                     100       0.166587121000638        1.14721404834212       0.818742476356069
66                     118                     102              105.656854       -0.20867688911496      -0.653228809651052      -0.347208114046231
67                     118                     102              102.828427        0.21358116084382       0.210025604900261    -0.00235123856155039
68                     118                     102                     100      -0.207480353013977      -0.656175182743767       0.351683434211355
69                     120                     100              105.656854       0.222612677066282          1.183254527991      -0.835676581653516
70                     120                     100              102.828427      -0.227989379462211       0.512163864331856     0.00120072990644155
71                     120                     100                     100       0.221528087321403        1.18455353744748       0.833441796551962
72                     122                     102              105.656854      -0.287467361161037      -0.688400000937075      -0.329928482280552
73                     122                     102              102.828427       0.292248878134862       0.244784527567293    -0.00102839926290264
74                     122                     102                     100      -0.285368171950842      -0.689145701168469       0.331838004673497
75                     124                     100              105.656854       0.325834551485249        1.23668037416874      -0.852245624109211
76                     124                     100              102.828427      -0.322384811301256       0.459493855369483    0.000353094341831169
77                     124                     100                     100       0.324755098657363        1.23672550506798       0.851592190267031
78                     126                     102              105.656854      -0.461193839199277      -0.727053638465252      -0.332058988980854
79                     126                     102              102.828427       0.396606586342388       0.281146999540329    0.000188429969261093
80                     126                     102                     100      -0.460070845438767      -0.726229667267621       0.331687928666943
81                     128                     100              105.656854        0.70809992065931         1.3404012509289       -0.75466312255807
82                     128                     100              102.828427       -0.28068299276541       0.396411073651378   -0.000217916883186571
83                     128                     100                     100        0.70762469915696        1.33984958546236       0.755057775725734
84                     130                     102              105.656854       -1.34063779076552      -0.708161957900974      -0.755635393039549
85                     130                     102              102.828427      -0.395895400564136       0.280415061849098    0.000619705452207639
86                     130                     102                     100       -1.34048163737627      -0.707189465922638       0.754496883410705
87                     100                     104              105.656854       0.958755452450027      0.0993225436722722      -0.808067669918519
88                     100                     104              102.828427       0.727946965425646     -0.0664779862240954   -0.000994930245909513
89                     100                     104                     100       0.958419041360996      0.0981415575123607       0.809899065494602
90                     102                     106              105.656854      -0.512886451466906       -0.15533129118955      -0.383298684614065
91                     102                     106              102.828427      0.0646596001626386       0.146627324644285     0.00173059142271417
92                     102                     106                     100      -0.512330929589706      -0.153113629795188       0.379997159996849
93                     104                     104              105.656854       0.247131331802408       0.251457286269968      -0.388236463162645
94                     104                     104              102.828427      -0.180143057886451      -0.183158627796623   -0.000985086975009766
95                     104                     104                     100       0.247663603072303       0.249671645215509       0.390130001671678
96                     106                     106              105.656854      -0.233318192332101      -0.241064179510144       -0.50458992785819
97                     106                     106              102.828427       0.226090896202672       0.230819984415243     0.00141094355750133
98                     106                     106                     100      -0.235101841408923      -0.237918662799059       0.501492109802872
99                     108                     104              105.656854       0.174604891336392        0.33732300569116       -0.37544214147324
100                     108                     104              102.828427      -0.178731465934846      -0.267916121910604    0.000149908192447124
101                     108                     104                     100       0.177323097997581       0.336381349142743       0.375297245468204
102                     110                     106              105.656854      -0.187120587523063      -0.291843322064709      -0.489258218499643
103                     110                     106              102.828427       0.196211714937494       0.285260405420717    -0.00148889253449742
104                     110                     106                     100      -0.193362575373199       -0.29194997459481        0.49185387131985
105                     112                     104              105.656854       0.169600778363435       0.381753346296261      -0.391597690926036
106                     112                     104              102.828427      -0.176390479474014      -0.316344086762919     0.00260422032151627
107                     112                     104                     100       0.173193539450145       0.384586834338524        0.38654073444428
108                     114                     106              105.656854      -0.192462836685859      -0.317701054939374      -0.467279118567387
109                     114                     106              102.828427       0.200434595984748       0.317311795643885    -0.00561134588435768
110                     114                     106                     100      -0.196663059702448      -0.324926292054607        0.47920656327164
111                     116                     104              105.656854       0.198194280638056       0.410623783801772      -0.407224260331717
112                     116                     104              102.828427      -0.203399406153219      -0.348028071585447     0.00405813680274383
113                     116                     104                     100       0.198187291483991       0.416073043021343       0.399136679912882
114                     118                     106              105.656854      -0.236757613525168      -0.339913926819459      -0.451386314079113
115                     118                     106              102.828427       0.240384967311457       0.340209306225656    -0.00560207506699903
116                     118                     106                     100      -0.232536553691415      -0.347116594797161       0.463291099918235
117                     120                     104              105.656854       0.257816752330485       0.438416619137046      -0.422316789554406
118                     120                     104              102.828427      -0.262605128323196      -0.374845762297019     0.00259872979597526
119                     120                     104                     100        0.25422619250731       0.441236248216397        0.41727144059923
120                     122                     106              105.656854      -0.313135449895443      -0.361826857770776       -0.43749014312202
121                     122                     106              102.828427       0.315742662958045       0.357512628741496    -0.00148134552279471
122                     122                     106                     100      -0.306917874728267      -0.361916089792122       0.440071674715587
123                     124                     104              105.656854       0.366636682487134       0.462629021093376      -0.438765669079931
124                     124                     104              102.828427      -0.360942102842261      -0.397126177066832    0.000151134757597593
125                     124                     104                     100       0.363931363665041       0.461688462073363       0.438616949251271
126                     126                     106              105.656854      -0.465916141824553      -0.365374994999108      -0.441501550054574
127                     126                     106              102.828427       0.400252743310573       0.359064964758462     0.00140277556276178
128                     126                     106                     100      -0.464146578697214      -0.362243019844904       0.438425339002012
129                     128                     104              105.656854       0.728038003091791       0.460957521633695      -0.330385705589003
130                     128                     104              102.828427      -0.282454629808254      -0.395848589195859   -0.000977810737531459
131                     128                     104                     100       0.727508616882319       0.459182115072058       0.332264370242324
132                     130                     106              105.656854       -1.23750048046869      -0.326597280611307      -0.854129477796929
133                     130                     106              102.828427      -0.458208456357657       0.322372248375256     0.00171906563962701
134                     130                     106                     100       -1.23805233326335      -0.324393019526603       0.850851433689541
135                     100                     108              105.656854        1.06152954826066       0.115253320498369      -0.799270141466777
136                     100                     108              102.828427       0.639388476593958      -0.115621044491473    -0.00211686621279026
137                     100                     108                     100        1.06003553453276       0.113346658656526        0.80325621028429
138                     102                     110              105.656854      -0.585652354096513      -0.152371968209159      -0.379711534767354
139                     102                     110              102.828427       0.136157771189859       0.153902009215616     0.00368541155051544
140                     102                     110                     100      -0.582885346363901      -0.149180456428731       0.372286338710396
141                     104                     108              105.656854       0.335481975003021       0.184632720025307      -0.370978746389765
142                     104                     108              102.828427      -0.265961424796437      -0.184464281969104    -0.00295945009440313
143                     104                     108                     100       0.334812691793137       0.180539599160963       0.377212989342016
144                     106                     110              105.656854       -0.28902624001025      -0.203849007427143      -0.500704519000138
145                     106                     110              102.828427       0.282089518902754        0.20408852450203     0.00452498249729403
146                     106                     110                     100       -0.28965975765861      -0.197221315574926       0.488799893136846
147                     108                     108              105.656854       0.224921875821892       0.239076570392058      -0.362037367554733
148                     108                     108              102.828427      -0.232561072762766      -0.239719192413593    -0.00136050225242796
149                     108                     108                     100       0.230699167446124       0.234427514971412       0.366461473375584
150                     110                     110              105.656854      -0.211714690721548      -0.235162763181994      -0.477610074932906
151                     110                     110              102.828427       0.229128206389636       0.238715496162177   -0.000986296465736405
152                     110                     110                     100      -0.227693739836147      -0.232063278490165        0.47616182733344
153                     112                     108              105.656854       0.193957526266774       0.264531797131153      -0.391150076053418
154                     112                     108              102.828427      -0.207633027829146       -0.27301951276023     0.00512181356636351
155                     112                     108                     100       0.205555693645536       0.269039890820187       0.380121235242489
156                     114                     110              105.656854      -0.205195949252878      -0.241268154439596      -0.432522370737815
157                     114                     110              102.828427       0.220049908869901       0.257158783728261     -0.0115148734038991
158                     114                     110                     100      -0.217561128373448      -0.252991414006034       0.463082896303836
159                     116                     108              105.656854       0.220210887684349       0.278067894246062      -0.416808114841914
160                     116                     108              102.828427      -0.226087901475296      -0.293007905767372     0.00955827598028683
161                     116                     108                     100       0.220177121504798       0.290186560244413       0.394065764157503
162                     118                     110              105.656854      -0.257564040077996      -0.252286454606162       -0.41527436388278
163                     118                     110              102.828427       0.255305070364381       0.268458874273338     -0.0114810168635746
164                     118                     110                     100      -0.245109240315166      -0.263945875571118         0.4457272793576
165                     120                     108              105.656854       0.281088913246182       0.298165987560355       -0.42589391377116
166                     120                     108              102.828427       -0.28057492260412      -0.307664200570202     0.00509638325852299
167                     120                     108                     100       0.269499751702045       0.302616637061308       0.414931371198068
168                     122                     110              105.656854      -0.324965811267137      -0.268706242107289      -0.421260572851463
169                     122                     110              102.828427       0.320542335396052       0.273256759544395   -0.000953356152870853
170                     122                     110                     100      -0.309083423461147      -0.265537422521261       0.419739332513777
171                     124                     108              105.656854       0.371965620366182       0.308702258444976      -0.434387218720853
172                     124                     108              102.828427      -0.364418287917691       -0.31161780832846    -0.00136079783570896
173                     124                     108                     100       0.366236540916641       0.304053697286864       0.438794880929007
174                     126                     110              105.656854      -0.446386800895297      -0.259741460002377      -0.429318304750435
175                     126                     110              102.828427        0.38155895157046        0.26181870573522     0.00450942731712758
176                     126                     110                     100      -0.445786236267969      -0.253131030254937       0.417483917015976
177                     128                     108              105.656854       0.691025165500065       0.288749849284058      -0.326276254372071
178                     128                     108              102.828427      -0.247808633092012      -0.291992235620364    -0.00294238924276771
179                     128                     108                     100       0.691695218891057       0.284678221821737       0.332467397710201
180                     130                     110              105.656854       -1.18380600920875      -0.224734686468816       -0.83968407900931
181                     130                     110              102.828427      -0.510278182327051       0.228659736642638     0.00366374706562674
182                     130                     110                     100       -1.18655836395199      -0.221559274424079       0.832309214450794
183                     100                     112              105.656854        1.11479637196612       0.136708720853946      -0.805475556973296
184                     100                     112              102.828427       0.586039738146015      -0.138896431928705    -0.00347494752154163
185                     100                     112                     100         1.1114581871163       0.135026089079053       0.812179920384772
186                     102                     114              105.656854      -0.630264726475964      -0.168650335203041       -0.37173967187985
187                     102                     114              102.828427       0.180232395676245       0.171767983811823     0.00548564982653056
188                     102                     114                     100      -0.624929075444922      -0.167036765443663       0.360275642986936
189                     104                     112              105.656854       0.388337723599706       0.180361244181204      -0.377386057673254
190                     104                     112              102.828427      -0.317492416701185      -0.181835445644089    -0.00597460291324157
191                     104                     112                     100       0.384169805690121       0.175946326253748       0.391288844364118
192                     106                     114              105.656854       -0.32550476402357      -0.201966156824256      -0.495921983465513
193                     106                     114              102.828427       0.317244690216311        0.20466162038007     0.00789152908549567
194                     106                     114                     100      -0.323616928816308      -0.198586584753339        0.47287882136529
195                     108                     112              105.656854       0.257310620553526        0.21595843562651      -0.365287680070852
196                     108                     112              102.828427      -0.267498292458345      -0.216295681443352    -0.00473475959858787
197                     108                     112                     100        0.26578161701144       0.209331228352353       0.384289258098971
198                     110                     114              105.656854      -0.221370098242262       -0.21991947532858      -0.466121275522121
199                     110                     114              102.828427       0.248519854767062       0.225979179207663    1.02790698334371e-05
200                     110                     114                     100      -0.248880612380248      -0.219990528885953       0.458728689029986
201                     112                     112              105.656854       0.199381111301297       0.226645438766428      -0.416267109774497