ITEM: TIMESTEP
0
ITEM: NUMBER OF ATOMS
422
ITEM: BOX BOUNDS pp pp pp
0.0000000000000000e+00 3.2000000000000000e+01
0.0000000000000000e+00 3.2000000000000000e+01
0.0000000000000000e+00 3.2000000000000000e+01
ITEM: ATOMS id xu yu zu fx fy fz
1        13.1459321938386        15.9835208156773                 9.45685   -2.82443289273127e-05    2.19662008296012e-05     -0.0160846374701252
2        18.8274848400711        15.9892262416344                 9.45685    3.08324202269727e-05    1.48379177306035e-05      -0.016049697993537
3         17.402344993917         15.987795112765                 9.45685   -4.60698097247136e-05    2.18750540616486e-05     -0.0157542554706274
4         14.571072038949        15.9849519429358                 9.45685    4.67316016784514e-05    2.76282165490721e-05     -0.0157223976000958
5        16.7010751677692        14.7497248501637                 9.45685   -0.000960029291905085    0.000455438850771733     -0.0140875951804867
6        15.2748269908674        14.7482926087119                 9.45685     0.00098533797596817    0.000482060007063301     -0.0139623959699228
7        15.2723418650276        17.2230222053877                 9.45685     0.00095510744411148   -0.000488649784444434     -0.0140392654327649
8        16.6985900414216        17.2244544465825                 9.45685   -0.000928980306850374   -0.000455678875621354     -0.0141770701195026
9        14.5177569207574        13.5484462411751                 9.45685     0.00121153621783731    -0.00105009508395056    -0.00790211032372918
10        17.4605534827313        13.5514014038861                 9.45685    -0.00124759225739507    -0.00102855667620873    -0.00801530194726912
11        14.5128635507729         18.421345651893                 9.45685     0.00122537115760963    0.000998603698407055    -0.00772420419260396
12        17.4556601106552        18.4243008141789                 9.45685    -0.00127327998207688    0.000981472588459278    -0.00792671281386075
13        13.1273112602358        13.5624445878976                 9.45685    -0.00153484590711245   -0.000721897975910407     -0.0102611914017155
14        13.1224488081137        18.4045547622743                 9.45685    -0.00156526112628197    0.000674499584811278     -0.0101790933285038
15         18.850968226168        13.5681922935721                 9.45685     0.00153627408494133   -0.000734490743797103     -0.0100787382675454
16        18.8461057714963        18.4103024705805                 9.45685     0.00155442087752483      0.0007098261227311     -0.0099632397357849
17         12.426795838139        17.1943199436399                 9.45685   -0.000587968539245654   -0.000198839355787459     -0.0153408922750707
18        12.4292290587396        14.7712798150634                 9.45685   -0.000617101756720407     0.00020145782489189     -0.0152647620437184
19        19.5466211966922        14.7784271122721                 9.45685    0.000643235343883939    0.000220161179037289      -0.015199285429529
20        19.5441879750283        17.2014672429596                 9.45685    0.000630361524143527   -0.000221581010404093      -0.015232757344208
21        20.9551350226241        14.8244350858224                 9.45685    -0.00104934233457471    0.000777617301479599     -0.0130187363029071
22        20.9527913622507        17.1582882295758                 9.45685    -0.00102554219752167   -0.000776831998555766     -0.0131062196371464
23        11.0206256731611        14.8144588294926                 9.45685     0.00107162661626877    0.000808691114427026     -0.0128415486230389
24        11.0182820131454        17.1483119722736                 9.45685     0.00102268600021196   -0.000815967468095549     -0.0129952668080545
25        21.5867264607395        15.9919970781177                 9.45685    8.03443262723845e-05      4.198195888267e-06     -0.0105790244342488
26        10.3866905744716        15.9807499786644                 9.45685   -7.53446678003693e-05    9.86044880644101e-06      -0.010572180886863
27         21.609196045824        18.1859221409264                 9.45685   -0.000325833446689267    0.000151157320935874    -0.00707657990249825
28        21.6136022867001        13.7981215696947                 9.45685   -0.000321265903392625   -0.000163786163941329    -0.00708348292470279
29        10.3598147507275        18.1746254872963                 9.45685    0.000305670086855059    0.000145252849695871    -0.00700706641393226
30        10.3642209902605        13.7868249167297                 9.45685    0.000304770150589198   -0.000175087762670475    -0.00705321061583194
31        12.5998668222426        12.6154548000933                 9.45685    0.000146711662205673    0.000149858550617908    -0.00662848181106748
32        12.5931035005993        19.3504833212092                 9.45685    0.000143978254334598    -0.00015502125725203    -0.00662976006734636
33        19.3803135329519        12.6222637346313                 9.45685    -0.00014930894440963    0.000149886043974007    -0.00662950254892756
34        19.3735502071424         19.357292260389                 9.45685   -0.000149257632221608   -0.000152420254201452    -0.00663045704497897
35        14.9622865728669        12.5689605638796                 9.45685   -0.000175477649418498    0.000117834897590652    -0.00664590698460569
36         14.955425108682        19.4017221461408                 9.45685   -0.000173321920497183   -0.000120993413425197    -0.00664269380179506
37        17.0179919240215        12.5710249097393                 9.45685    0.000176011958543554    0.000119353348726842    -0.00664510258871021
38         17.011130457531        19.4037864905846                 9.45685    0.000174534287569528   -0.000122976965817007    -0.00664229986487789
39                       0                       0                5.656854                       0                       0                       0
40                       0                       0                2.828427                       0                       0                       0
41                       0                       0                       0                       0                       0                       0
42                       2                       2                5.656854    4.16537631979114e-10    5.86983072910668e-10    1.89239540324581e-10
43                       2                       2                2.828427                       0                       0                       0
44                       2                       2                       0                       0                       0                       0
45                       4                       0                5.656854                       0                       0                       0
46                       4                       0                2.828427                       0                       0                       0
47                       4                       0                       0                       0                       0                       0
48                       6                       2                5.656854    1.28122681213677e-08    2.56898106046829e-08    8.41884825763436e-09
49                       6                       2                2.828427    2.30539388318268e-10    5.03401193900031e-10    2.93986799386396e-10
50                       6                       2                       0                       0                       0                       0
51                       8                       0                5.656854     4.2927197437746e-10    2.17788148985732e-10    3.91813226721671e-10
52                       8                       0                2.828427    1.17983177900079e-10    3.23577074182366e-10    1.70014141762629e-10
53                       8                       0                       0                       0                       0                       0
54                      10                       2                5.656854    5.40398750934578e-08    2.10028007799736e-07    7.02662369817207e-08
55                      10                       2                2.828427    1.45271013446842e-09    5.84409306656994e-09    3.41276918039047e-09
56                      10                       2                       0    1.51210995925056e-10    6.17406045104611e-10    5.50020368189616e-10
57                      12                       0                5.656854    8.17085542411263e-10    1.46669661165194e-10    1.92813375353033e-09
58                      12                       0                2.828427    3.97522782054219e-10    6.56691519638577e-11    1.70000796658664e-09
59                      12                       0                       0                       0                       0                       0
60                      14                       2                5.656854     3.3378471604454e-08    5.14076082758987e-07    1.74377570044235e-07
61                      14                       2                2.828427    9.10790730882651e-10    1.40242859697215e-08    8.28170461066165e-09
62                      14                       2                       0    1.10433023400324e-10    4.23139617159027e-09    3.63272068309786e-09
63                      16                       0                5.656854   -5.21302832004497e-12     2.0176938038487e-10    3.05551713881607e-09
64                      16                       0                2.828427   -3.23105187451966e-12    1.07102261334711e-10    3.19633095671781e-09
65                      16                       0                       0                       0                       0                       0
66                      18                       2                5.656854   -3.41928510461693e-08    5.11227861419267e-07    1.73372999135609e-07
67                      18                       2                2.828427   -9.33392223136993e-10    1.39540671997176e-08    8.23844709037334e-09
68                      18                       2                       0   -1.17950641165333e-10    4.21281108471048e-09    3.61567039163829e-09
69                      20                       0                5.656854   -8.22664223426045e-10    1.07969717945406e-10    1.91846414596162e-09
70                      20                       0                2.828427   -4.01494605068633e-10    4.84923724219965e-11    1.69219828961808e-09
71                      20                       0                       0                       0                       0                       0
72                      22                       2                5.656854   -5.35538001345338e-08    2.06628577362046e-07    6.90933555630222e-08
73                      22                       2                2.828427   -1.44193601477887e-09    5.75782919472689e-09     3.3606285930443e-09
74                      22                       2                       0   -1.50326333633262e-10    6.09540867656571e-10    5.42665546469612e-10
75                      24                       0                5.656854   -3.54526736236961e-10    1.64646470356045e-11     3.3422777213474e-10
76                      24                       0                2.828427   -1.16314791891607e-10    3.17804247099205e-10    1.66890902080457e-10
77                      24                       0                       0                       0                       0                       0
78                      26                       2                5.656854   -1.25355197876142e-08    2.50470456562659e-08    8.20280541727136e-09
79                      26                       2                2.828427   -2.25978522782257e-10    4.91669668640892e-10     2.8691229221036e-10
80                      26                       2                       0                       0                       0                       0
81                      28                       0                5.656854                       0                       0                       0
82                      28                       0                2.828427                       0                       0                       0
83                      28                       0                       0                       0                       0                       0
84                      30                       2                5.656854    -4.0391605217668e-10    5.68235713406982e-10    1.83020104111332e-10
85                      30                       2                2.828427                       0                       0                       0
86                      30                       2                       0                       0                       0                       0
87                       0                       4                5.656854    4.11513057407624e-12    2.28216139783122e-10     8.8560820584021e-11
88                       0                       4                2.828427                       0                       0                       0
89                       0                       4                       0                       0                       0                       0
90                       2                       6                5.656854    7.00760737363666e-08    6.39600386681232e-08    3.00910556732454e-08
91                       2                       6                2.828427    1.97833315571127e-09    1.79899798289425e-09      1.484132422665e-09
92                       2                       6                       0    4.95609126977915e-10    4.61396405403931e-10    5.60351188463175e-10
93                       4                       4                5.656854    7.99072798548771e-09    1.08958777799922e-08    4.20322460111812e-09
94                       4                       4                2.828427     6.9262015075613e-09    9.48507239680381e-09    6.43741686086769e-09
95                       4                       4                       0                       0                       0                       0
96                       6                       6                5.656854      2.158105839749e-06    3.18564287724357e-06    1.53652487773808e-06
97                       6                       6                2.828427    4.60077831568392e-08    6.69749547551774e-08    5.58963053994309e-08
98                       6                       6                       0    1.48599379723943e-08    2.12392132199609e-08    2.53893097878625e-08
99                       8                       4                5.656854    8.74400893542885e-08    2.04944275366755e-07    8.11536997589943e-08
100                       8                       4                2.828427    6.87026877386647e-08    1.59360216760735e-07    1.09686413577957e-07
101                       8                       4                       0    7.19800499256612e-10    1.66162108090119e-09    1.64948064419222e-09
102                      10                       6                5.656854    1.31228742479479e-05    3.89805625441663e-05      1.976777936554e-05
103                      10                       6                2.828427    2.09494589493829e-07    6.09665511908428e-07     5.3013330299604e-07
104                      10                       6                       0    5.37658542207687e-08    1.54076097966746e-07    1.88228133542535e-07
105                      12                       4                5.656854    1.70753914827143e-07    1.01787142156097e-06    4.15990424212552e-07
106                      12                       4                2.828427    1.18737909253508e-07    6.87527394191628e-07    4.85107854923839e-07
107                      12                       4                       0    1.11242256300232e-09    6.65081901181428e-09    6.69882422684708e-09
108                      14                       6                5.656854    7.29991663577836e-06    0.000106958747341011    5.60503679203484e-05
109                      14                       6                2.828427    1.15387123600085e-07    1.47965550941389e-06    1.32495512440835e-06
110                      14                       6                       0    2.97757127073756e-08    3.40215440001424e-07    4.25705433697799e-07
111                      16                       4                5.656854   -1.58205561951869e-09    1.51753147722711e-06    6.26471087449046e-07
112                      16                       4                2.828427   -1.04952209962995e-09    1.00201536452562e-06    7.13823380797317e-07
113                      16                       4                       0   -1.02085092497106e-11    9.64792671768016e-09    9.79816487901023e-09
114                      18                       6                5.656854   -7.50493475019276e-06    0.000106344574943043    5.57045899192778e-05
115                      18                       6                2.828427   -1.18256894381804e-07    1.47249585691767e-06    1.31803795617787e-06
116                      18                       6                       0   -3.04482116978184e-08    3.38831882156326e-07    4.23828262576059e-07
117                      20                       4                5.656854   -1.70934664252713e-07    1.00609178897655e-06    4.10959567577444e-07
118                      20                       4                2.828427   -1.18986624270482e-07     6.8054435908845e-07    4.79943479539461e-07
119                      20                       4                       0   -1.11690705949796e-09    6.59318354469128e-09    6.63743079418078e-09
120                      22                       6                5.656854   -1.29770498907494e-05    3.82719674886013e-05    1.93900612903465e-05
121                      22                       6                2.828427   -2.07718585135006e-07    6.00273442751712e-07    5.21517080492968e-07
122                      22                       6                       0   -5.34390898421219e-08    1.52085024769441e-07    1.85647065998331e-07
123                      24                       4                5.656854   -8.59066503683707e-08    2.00374162706641e-07    7.92832596810078e-08
124                      24                       4                2.828427   -6.69122014129286e-08    1.55438303453173e-07    1.06902927600896e-07
125                      24                       4                       0   -7.10687004606014e-10    1.63296868477489e-09    1.61979909306328e-09
126                      26                       6                5.656854   -2.10390931122998e-06    3.09525762915155e-06    1.49129997429205e-06
127                      26                       6                2.828427   -4.50083312638093e-08    6.53071514759972e-08    5.44484203716529e-08
128                      26                       6                       0   -1.45887724067719e-08    2.07865196137946e-08    2.48227533990214e-08
129                      28                       4                5.656854   -7.76971244121734e-09    1.05681653147171e-08    4.07324083401451e-09
130                      28                       4                2.828427   -6.75180779884078e-09    9.22429313897483e-09    6.25468747359597e-09
131                      28                       4                       0                       0                       0                       0
132                      30                       6                5.656854   -6.78003939572584e-08    6.17868746815485e-08    2.90354835903884e-08
133                      30                       6                2.828427   -1.76965097620934e-09    1.64123029924951e-09    1.34714013777695e-09
134                      30                       6                       0   -4.82762931492292e-10    4.48898818994573e-10    5.44383510627293e-10
135                       0                       8                5.656854    2.77213591708708e-10    9.03566945031221e-09    5.47384635422784e-09
136                       0                       8                2.828427     2.3038156262585e-10    8.24655576642769e-09    8.76999205996277e-09
137                       0                       8                       0                       0                       0                       0
138                       2                      10                5.656854    2.14562655662294e-06    1.09220352016604e-06    9.39553183886963e-07
139                       2                      10                2.828427    4.70975977951329e-08    2.42248453008545e-08    3.56308444759842e-08
140                       2                      10                       0     1.4821687603002e-08    7.66998669742773e-09    1.59944936375475e-08
141                       4                       8                5.656854    6.63830985010917e-07    5.89596674630689e-07     3.6556937864673e-07
142                       4                       8                2.828427    4.27222340375149e-07    3.77667468789263e-07    4.03233806347091e-07
143                       4                       8                       0    3.98079126998833e-09    3.53136870344164e-09    5.35227678694718e-09
144                       6                      10                5.656854    0.000154273015908015    0.000131598890618543    0.000119681737902596
145                       6                      10                2.828427    1.68846437231304e-06    1.42778636783966e-06    2.19163329902266e-06
146                       6                      10                       0    3.25139359689656e-07    2.73061209898745e-07    5.79143755440172e-07
147                       8                       8                5.656854    1.32746487002643e-05    2.21666359829838e-05     1.4404896751236e-05
148                       8                       8                2.828427    5.30161062463982e-06    8.54220592942055e-06     9.4974152327058e-06
149                       8                       8                       0    3.47970716326256e-08    5.44763257230068e-08      8.467165595075e-08
150                      10                      10                5.656854     0.00136531955894886     0.00272796641009555     0.00270978465914028
151                      10                      10                2.828427    8.90839073565764e-06    1.67841021707429e-05    2.76156075631361e-05
152                      10                      10                       0    1.18568184633363e-06    2.11439770040613e-06    4.73013866166819e-06
153                      12                       8                5.656854    3.22480181510444e-05    0.000147824136601995    0.000104046280707116
154                      12                       8                2.828427    9.53787656631204e-06    4.13706139182883e-05    4.88492837149236e-05
155                      12                       8                       0    5.13462793947608e-08     2.0918017400745e-07    3.40059737836891e-07
156                      14                      10                5.656854    0.000496138613594129     0.00730573135607257     0.00802230618698663
157                      14                      10                2.828427    3.61679457536437e-06    3.82910128129758e-05    6.79169459498922e-05
158                      14                      10                       0    5.26288388109302e-07     4.3342142559754e-06    1.02325363216965e-05
159                      16                       8                5.656854   -2.39162793749744e-07    0.000214581811063207    0.000154634330585439
160                      16                       8                2.828427    -6.8795037343324e-08    5.82113725996113e-05    7.02551273964951e-05
161                      16                       8                       0   -3.57586111429088e-10    2.87728040412495e-07    4.76419349498326e-07
162                      18                      10                5.656854   -0.000516909767329984     0.00727855653997265     0.00798446964494349
163                      18                      10                2.828427   -3.72271793154595e-06    3.81693251950674e-05    6.76440309684206e-05
164                      18                      10                       0   -5.38266911238804e-07    4.32239766408078e-06    1.01976046878358e-05
165                      20                       8                5.656854   -3.22820478527162e-05    0.000146046778008452    0.000102680445946069
166                      20                       8                2.828427    -9.5642186626422e-06    4.09794796435064e-05    4.83406074466164e-05
167                      20                       8                       0   -5.15387164001385e-08    2.07575177741959e-07    3.37166148880935e-07
168                      22                      10                5.656854    -0.00135069233636905      0.0026805735834049     0.00265686538498429
169                      22                      10                2.828427   -8.84547876338397e-06    1.65557453509669e-05    2.71908940564535e-05
170                      22                      10                       0   -1.18017319421721e-06     2.0913319654824e-06    4.67157402647471e-06
171                      24                       8                5.656854   -1.30047765632428e-05    2.16128776702216e-05    1.40240896479728e-05
172                      24                       8                2.828427   -5.21559532913244e-06    8.36667284754136e-06     9.2900938211438e-06
173                      24                       8                       0   -3.43586315758519e-08    5.35572623834476e-08    8.31442720779919e-08
174                      26                      10                5.656854   -0.000149910990928466     0.00012755128936292    0.000115748350501887
175                      26                      10                2.828427   -1.65064033203152e-06    1.39218477829445e-06    2.13303214991226e-06
176                      26                      10                       0   -3.19332264038262e-07    2.67479925576569e-07     5.6639362229669e-07
177                      28                       8                5.656854   -6.43101068033767e-07    5.70062283123969e-07    3.52931878729809e-07
178                      28                       8                2.828427   -4.15688934878499e-07    3.66738546926255e-07    3.91031491849043e-07
179                      28                       8                       0   -3.89003540370709e-09     3.4440795761341e-09    5.21294471447699e-09
180                      30                      10                5.656854   -2.07066620471146e-06    1.05374317902044e-06    9.04822822097109e-07
181                      30                      10                2.828427   -4.56484643864025e-08    2.34655474746934e-08    3.44584492707699e-08
182                      30                      10                       0   -1.44336818252915e-08    7.46228110332933e-09    1.55340530588865e-08
183                       0                      12                5.656854    2.90101838945481e-09    4.21687327058253e-08    5.61106600901265e-08
184                       0                      12                2.828427    2.21051309695162e-09    3.61762309858969e-08    8.26539482615825e-08
185                       0                      12                       0    1.90814318937835e-11    3.33730226825226e-10    1.21306438600641e-09
186                       2                      14                5.656854    1.20727156719071e-05     1.7558879119301e-06     5.2901817687381e-06
187                       2                      14                2.828427     2.2378550824015e-07    3.46082676799144e-08    1.70326786459029e-07
188                       2                      14                       0    6.51751931089345e-08    1.03202665499462e-08    6.96099337408835e-08
189                       4                      12                5.656854    1.36239910349994e-05    5.23226925737178e-06      7.674146736205e-06
190                       4                      12                2.828427    5.74538224717183e-06    2.29494859175224e-06      5.535911752288e-06
191                       4                      12                       0     3.9495598999998e-08    1.62485019949858e-08     5.3125624247951e-08
192                       6                      14                5.656854     0.00155013126471811     0.00033151555037137     0.00122802667700115
193                       6                      14                2.828427    1.10775640853524e-05    2.67290266823143e-06    1.47338071064411e-05
194                       6                      14                       0    1.54160349226463e-06    3.96959514737265e-07    2.80294647549406e-06
195                       8                      12                5.656854    0.000594245099758953    0.000465078374696894    0.000757114635977852
196                       8                      12                2.828427    0.000100832478855725     7.7916294240411e-05    0.000202292775778357
197                       8                      12                       0    3.73694638125632e-07    2.84494264313274e-07    9.81197038269278e-07
198                      10                      14                5.656854       0.011146031106378     0.00692895646428425      0.0222425097963392
199                      10                      14                2.828427    5.78030067856815e-05     3.4875180130796e-05    0.000216460311061438
200                      10                      14                       0    5.32319554045708e-06    3.11645408264228e-06    2.39162219895506e-05
201                      12                      12                5.656854     0.00108889933461615     0.00289334321554111     0.00558240876812403