ITEM: TIMESTEP
0
ITEM: NUMBER OF ATOMS
422
ITEM: BOX BOUNDS pp pp pp
0.0000000000000000e+00 3.2000000000000000e+01
0.0000000000000000e+00 3.2000000000000000e+01
0.0000000000000000e+00 3.2000000000000000e+01
ITEM: ATOMS id xu yu zu fx fy fz
1        13.1459321938386        14.1835208156773                 8.65685     -0.0408417436691145     0.00877653856144466       0.120307737566007
2        18.8274848400711        14.1892262416344                 8.65685      0.0406600112813503     0.00929444690243975        0.12400061262973
3         17.402344993917         14.187795112765                 8.65685      -0.036141592284738      0.0113408215560417       0.156269105008101
4         14.571072038949        14.1849519429358                 8.65685      0.0352395984246222      0.0113979266745553       0.159824512897074
5        16.7010751677692        12.9497248501637                 8.65685     -0.0166729628835626     -0.0139142691430142      0.0248295693316577
6        15.2748269908674        12.9482926087119                 8.65685      0.0170686731975356     -0.0144532664542881      0.0261416888588065
7        15.2723418650276        15.4230222053877                 8.65685     0.00953844194971537      0.0101783252995461      0.0105462742969727
8        16.6985900414216        15.4244544465825                 8.65685    -0.00921276954878111     0.00967650696281304     0.00959767778299927
9        14.5177569207574        11.7484462411751                 8.65685     0.00593793269568614      0.0111144926071614      0.0188983344237769
10        17.4605534827313        11.7514014038861                 8.65685    -0.00606704833421974      0.0108294631744363      0.0183504904479697
11        14.5128635507729         16.621345651893                 8.65685      0.0103690341435384     -0.0258403487978849      0.0428084534172977
12        17.4556601106552        16.6243008141789                 8.65685     -0.0108222554056509     -0.0254052719213117      0.0419199909552529
13        13.1273112602358        11.7624445878976                 8.65685    -0.00695159155842173     0.00767670119722785      0.0105508891604822
14        13.1224488081137        16.6045547622743                 8.65685     -0.0123901707150977     -0.0183248402664361      0.0267984489810492
15         18.850968226168        11.7681922935721                 8.65685     0.00691317539894417     0.00767703882449078      0.0108990493592657
16        18.8461057714963        16.6103024705805                 8.65685      0.0125009021552825     -0.0191204753592144      0.0284949649566713
17         12.426795838139        15.3943199436399                 8.65685    -0.00624585828392333     0.00623828677046374     0.00339622319929376
18        12.4292290587396        12.9712798150634                 8.65685     -0.0112049471280654    -0.00887772118545468      0.0127066117868398
19        19.5466211966922        12.9784271122721                 8.65685      0.0119030000112833     -0.0092784186070672      0.0138593861597008
20        19.5441879750283        15.4014672429596                 8.65685     0.00656320594186003     0.00650569202922835     0.00385576197095254
21        20.9551350226241        13.0244350858224                 8.65685     -0.0221791130139249     -0.0207694919861379      0.0462780556038971
22        20.9527913622507        15.3582882295758                 8.65685     -0.0126400080718944      0.0156112549720716      0.0217169558383972
23        11.0206256731611        13.0144588294926                 8.65685      0.0221119290235112     -0.0213820027446509      0.0474060816414371
24        11.0182820131454        15.3483119722736                 8.65685      0.0130096325695228      0.0164274176518126      0.0235110147546525
25        21.5867264607395        14.1919970781177                 8.65685     -0.0116421824197644     0.00539884485369233      0.0668355987959304
26        10.3866905744716        14.1807499786644                 8.65685      0.0110727616409255     0.00516734221567025      0.0681976365269034
27         21.609196045824        16.3859221409264                 8.65685    -0.00219490955253339    -0.00731127000518963     0.00308231278755212
28        21.6136022867001        11.9981215696947                 8.65685    -0.00145531918543714     3.6550449295024e-05    -0.00198384252648521
29        10.3598147507275        16.3746254872963                 8.65685     0.00201580676732592     -0.0072156275625157     0.00303199950298779
30        10.3642209902605        11.9868249167297                 8.65685     0.00139022308460658    0.000258441245628144     -0.0018584631465171
31        12.5998668222426        10.8154548000933                 8.65685    -0.00187926260176993     0.00094856577045734    -0.00685836709478379
32        12.5931035005993        17.5504833212092                 8.65685    -0.00266867468305187   -0.000746122185411401    -0.00532704124646035
33        19.3803135329519        10.8222637346313                 8.65685      0.0019180642588353    0.000997854683166376    -0.00672978356129997
34        19.3735502071424         17.557292260389                 8.65685     0.00281456353155933   -0.000799377310254451    -0.00492155590780604
35        14.9622865728669        10.7689605638796                 8.65685     0.00294068718826939       0.002290816121504    -0.00190009669398458
36         14.955425108682        17.6017221461408                 8.65685      0.0040774466588242    -0.00162462649878503     0.00147386331142964
37        17.0179919240215        10.7710249097393                 8.65685    -0.00291390118438134     0.00222330030456059    -0.00216549867345704
38         17.011130457531        17.6037864905846                 8.65685    -0.00403878354724796    -0.00153901693154015     0.00092328067743162
39                       0                       0                5.656854                       0                       0                       0
40                       0                       0                2.828427                       0                       0                       0
41                       0                       0                       0                       0                       0                       0
42                       2                       2                5.656854    7.44760169184362e-09    8.54817059653471e-09    2.55379643135381e-09
43                       2                       2                2.828427    2.59655572235015e-10    2.92460441288757e-10    1.73809944361067e-10
44                       2                       2                       0                       0                       0                       0
45                       4                       0                5.656854     4.3248539874131e-10     7.2431192383672e-10    1.86193301087046e-10
46                       4                       0                2.828427     6.2945734185102e-10    1.05218291487624e-09    5.25723997432759e-10
47                       4                       0                       0                       0                       0                       0
48                       6                       2                5.656854    1.99196029108898e-07    3.54596990674044e-07    1.07095822829047e-07
49                       6                       2                2.828427    7.01696724273033e-09    1.24163299599525e-08    7.28378558512379e-09
50                       6                       2                       0    3.02265861416405e-09    5.50359500948076e-09    4.82405019806264e-09
51                       8                       0                5.656854    5.84017910763474e-09    1.59979420546666e-08    4.11664796689444e-09
52                       8                       0                2.828427    7.40800955773513e-09    2.03106247839576e-08    1.01376885212919e-08
53                       8                       0                       0    5.74617242952201e-11    1.89023490707081e-10    1.43432932856133e-10
54                      10                       2                5.656854    1.01737428920346e-06    3.53865328435784e-06     1.1058985761328e-06
55                      10                       2                2.828427    3.05946022874262e-08    1.05208582642929e-07    6.33673295314044e-08
56                      10                       2                       0    1.22112371943345e-08    4.33127497877801e-08    3.86404561605069e-08
57                      12                       0                5.656854    1.08005189392085e-08    7.19330185200241e-08    1.88980535518043e-08
58                      12                       0                2.828427     1.3001026754414e-08    8.42025532084129e-08    4.27923406526345e-08
59                      12                       0                       0      1.588571695073e-10    1.15631596284823e-09    8.85055118179784e-10
60                      14                       2                5.656854    6.14014984886354e-07    9.24876725209974e-06    2.95033299923385e-06
61                      14                       2                2.828427    1.81813158117591e-08    2.55257573187835e-07    1.56692093861866e-07
62                      14                       2                       0    6.95169947649603e-09    9.98838907290864e-08    9.04866038418511e-08
63                      16                       0                5.656854   -1.04831303679982e-10    1.07194629641548e-07    2.83673703161051e-08
64                      16                       0                2.828427   -1.18334021336552e-10    1.21894288612754e-07    6.24374256804858e-08
65                      16                       0                       0   -1.73241009129343e-12    1.80041633176496e-09    1.38281894033922e-09
66                      18                       2                5.656854   -6.29728966460989e-07    9.19438822497053e-06    2.93211922550311e-06
67                      18                       2                2.828427   -1.86196430407722e-08    2.53921490074297e-07    1.55829004097557e-07
68                      18                       2                       0   -7.13026393530733e-09    9.94342958717744e-08    9.00547173995344e-08
69                      20                       0                5.656854   -1.08162648478836e-08    7.11284628502378e-08    1.86802648406865e-08
70                      20                       0                2.828427   -1.30268046069846e-08    8.33407803347183e-08    4.23386028334172e-08
71                      20                       0                       0   -1.59535792943308e-10    1.14579099664752e-09    8.76633234328371e-10
72                      22                       2                5.656854   -1.00679689410991e-06    3.47656059731283e-06    1.08577042884745e-06
73                      22                       2                2.828427   -3.03292829909989e-08    1.03552522582293e-07    6.23305000131944e-08
74                      22                       2                       0   -1.21328036818819e-08    4.27202673696298e-08     3.8087577376861e-08
75                      24                       0                5.656854    -5.7447980077444e-09    1.56592756667411e-08    4.02712991910857e-09
76                      24                       0                2.828427   -7.29779826225874e-09    1.99116117910836e-08    9.93266591936011e-09
77                      24                       0                       0   -5.67558181298076e-11    1.85657345479057e-10    1.40773698358192e-10
78                      26                       2                5.656854   -1.94486355716865e-07    3.45003557151252e-07    1.04113940813439e-07
79                      26                       2                2.828427   -6.86667832711997e-09    1.21088848429421e-08    7.09774390868058e-09
80                      26                       2                       0   -2.96619256417294e-09    5.38261584784805e-09     4.7139550745299e-09
81                      28                       0                5.656854   -4.21043827026185e-10    7.03341356437742e-10    1.80661423355004e-10
82                      28                       0                2.828427   -4.05693637537944e-10    7.62176394541648e-10    3.70248492832753e-10
83                      28                       0                       0                       0                       0                       0
84                      30                       2                5.656854   -7.21350029505732e-09    8.26542501854571e-09    2.46693227349086e-09
85                      30                       2                2.828427   -2.52113837646121e-10    2.83499602543847e-10    1.68314369064471e-10
86                      30                       2                       0                       0                       0                       0
87                       0                       4                5.656854    5.23888231054941e-11    2.30335624463486e-09    8.33623725065721e-10
88                       0                       4                2.828427    4.42449293575645e-11     2.0692960672592e-09     1.5090300490925e-09
89                       0                       4                       0                       0                       0                       0
90                       2                       6                5.656854    5.71203872366388e-07    4.18456549368839e-07    1.96228194072594e-07
91                       2                       6                2.828427    1.88123829414272e-08    1.38154013701576e-08    1.25156944243999e-08
92                       2                       6                       0    7.72090129190873e-09    5.69863028229829e-09    7.71437380090946e-09
93                       4                       4                5.656854    9.64073627587904e-08    1.11792522572246e-07    4.09846190191048e-08
94                       4                       4                2.828427    1.01948178644714e-07    1.17303855799784e-07    8.33295111941463e-08
95                       4                       4                       0    1.35391369119315e-09    1.57238180337885e-09    1.66702016993058e-09
96                       6                       6                5.656854    2.80874131566755e-05    3.41889413106788e-05    1.65974708269222e-05
97                       6                       6                2.828427    5.88875479854824e-07    7.04291159183869e-07    6.55905274396768e-07
98                       6                       6                       0    1.80290969148054e-07    2.12033584683513e-07    2.88861357709784e-07
99                       8                       4                5.656854    1.43810589771721e-06     2.9592356616884e-06    1.12780453813318e-06
100                       8                       4                2.828427    1.13432166140996e-06     2.2935443891787e-06    1.68139302550645e-06
101                       8                       4                       0    1.24981356870234e-08    2.48309443012455e-08    2.67417313997547e-08
102                      10                       6                5.656854    0.000231024707537023    0.000591747158385432    0.000308572651095152
103                      10                       6                2.828427    3.24984696837189e-06    8.11000450207578e-06    7.99575929021297e-06
104                      10                       6                       0    7.07189476811553e-07    1.70134210168444e-06    2.42151043145182e-06
105                      12                       4                5.656854    3.26529044257466e-06    1.78096690869306e-05    7.12816373353638e-06
106                      12                       4                2.828427    2.12828168151411e-06    1.11365766555979e-05    8.50771462270216e-06
107                      12                       4                       0     1.9647821540762e-08    9.85865701355038e-08    1.09817508760435e-07
108                      14                       6                5.656854    0.000113170606380126     0.00177851584115429    0.000979078835459159
109                      14                       6                2.828427    1.61096055830905e-06    2.05102515535802e-05    2.11828279514459e-05
110                      14                       6                       0    3.56710119898464e-07    3.77193992417014e-06    5.57381234351575e-06
111                      16                       4                5.656854   -2.89885898550517e-08    2.66806548255411e-05    1.08328112764283e-05
112                      16                       4                2.828427   -1.79228491197097e-08    1.62334743879844e-05    1.25751315990314e-05
113                      16                       4                       0   -1.57524794416175e-10    1.40011013069851e-07    1.57912504081948e-07
114                      18                       6                5.656854   -0.000117070331329316     0.00176843414582543    0.000972905874798452
115                      18                       6                2.828427   -1.65617654575698e-06    2.04154386614258e-05    2.10731274523073e-05
116                      18                       6                       0   -3.65108217286527e-07    3.75759899859746e-06    5.54996386608375e-06
117                      20                       4                5.656854   -3.26692879831505e-06    1.75872036233024e-05     7.0339653007219e-06
118                      20                       4                2.828427   -2.13205446899276e-06    1.10182445990828e-05    8.41168045698175e-06
119                      20                       4                       0   -1.97066612289515e-08    9.77107142317618e-08    1.08775203667105e-07
120                      22                       6                5.656854   -0.000228079183702624    0.000580074073566999    0.000302061792150816
121                      22                       6                2.828427   -3.21988338395609e-06    7.97971925193624e-06    7.85774765671727e-06
122                      22                       6                       0   -7.02670250354759e-07    1.67917411644209e-06    2.38741100721282e-06
123                      24                       4                5.656854   -1.40986311869548e-06    2.88707419104249e-06    1.09917307129412e-06
124                      24                       4                2.828427   -1.11537355823701e-06    2.24461576303045e-06       1.64394350294e-06
125                      24                       4                       0    -1.2327109318117e-08    2.43789281307853e-08    2.62314018135573e-08
126                      26                       6                5.656854   -2.73033026527963e-05    3.31297182888673e-05    1.60593169567797e-05
127                      26                       6                2.828427   -5.75007433791118e-07    6.85605064133166e-07    6.37632760475474e-07
128                      26                       6                       0   -1.76797573937722e-07    2.07305143276056e-07    2.82070118245334e-07
129                      28                       4                5.656854   -9.33636840920375e-08    1.08039327027394e-07    3.95753086605982e-08
130                      28                       4                2.828427   -9.91869201386942e-08    1.13864934453761e-07    8.08010108948019e-08
131                      28                       4                       0   -1.32199953207262e-09    1.53188541448364e-09    1.62231441698827e-09
132                      30                       6                5.656854   -5.51363992672745e-07    4.03601002270345e-07    1.88999741338135e-07
133                      30                       6                2.828427   -1.81630005810913e-08    1.33495576551149e-08    1.20713945447168e-08
134                      30                       6                       0   -7.51007671827174e-09     5.5361777085041e-09     7.4835760045636e-09
135                       0                       8                5.656854    1.42393822970212e-09    3.35597084426688e-08    2.14436803104575e-08
136                       0                       8                2.828427    1.53122433131364e-09    3.95748658475208e-08    4.87031863492618e-08
137                       0                       8                       0    1.89976899825183e-11    5.52530434059881e-10    1.03263871760656e-09
138                       2                      10                5.656854    9.15679869895499e-06     3.0340265222996e-06    3.17449884714716e-06
139                       2                      10                2.828427    2.35358759810867e-07    8.03234354058989e-08    1.57577008166379e-07
140                       2                      10                       0    8.71915247865008e-08    3.04061909036604e-08    8.53245553796606e-08
141                       4                       8                5.656854    5.35407528545147e-06      3.519018742755e-06    2.37184728471805e-06
142                       4                       8                2.828427    3.62132803282918e-06    2.39484803000121e-06    3.06148882153044e-06
143                       4                       8                       0    3.46123143413575e-08    2.30185557701553e-08    4.26138827359065e-08
144                       6                      10                5.656854     0.00118638555809164    0.000640036154199063    0.000747133582379895
145                       6                      10                2.828427    1.28881425527442e-05    7.16104338105504e-06    1.51600428013144e-05
146                       6                      10                       0    2.27643536992766e-06    1.28915352057184e-06    3.80006930311326e-06
147                       8                       8                5.656854    0.000184938638498024    0.000246331135418943    0.000176501467053085
148                       8                       8                2.828427     6.3455283010659e-05    8.04763948030337e-05    0.000108454848035079
149                       8                       8                       0     3.4936617588241e-07    4.26040447629573e-07    8.22490432408799e-07
150                      10                      10                5.656854      0.0100569483058303     0.00967705193440725      0.0110358153267406
151                      10                      10                2.828427    7.98902606544035e-05    0.000109283713001816    0.000253488835997659
152                      10                      10                       0    8.91720394351022e-06    1.13481439316459e-05    3.59374695997237e-05
153                      12                       8                5.656854    0.000512930712308432     0.00194378014567644     0.00159091794865076
154                      12                       8                2.828427    0.000118121122998498    0.000428553280808754    0.000634138556188187
155                      12                       8                       0    5.07108449638018e-07    1.70766942613755e-06    3.52376347074094e-06
156                      14                      10                5.656854     0.00331807733486146    -0.00597047472492497     -0.0254572041377117
157                      14                      10                2.828427    2.34582136884397e-05    0.000227684116622105     0.00060347054155015
158                      14                      10                       0    3.29655683698276e-06    2.20868844605152e-05    7.61041406819204e-05
159                      16                       8                5.656854   -2.75988920698404e-06     0.00268896023051178     0.00229031065179028
160                      16                       8                2.828427    -6.8525837868671e-07    0.000579143158535601    0.000887778306557379
161                      16                       8                       0   -3.04065103778108e-09    2.27749278228847e-06    4.83797884124633e-06
162                      18                      10                5.656854    -0.00326198226510724    -0.00584412466703533     -0.0250659698246862
163                      18                      10                2.828427   -2.42967679430444e-05    0.000227305753081363    0.000601642679478073
164                      18                      10                       0   -3.37524725674785e-06    2.20491425572941e-05    7.58927967765065e-05
165                      20                       8                5.656854   -0.000513804770214173     0.00192166742280457      0.0015700576989296
166                      20                       8                2.828427   -0.000118545622560874    0.000424803165766714     0.00062764729983247
167                      20                       8                       0   -5.09368964850734e-07    1.69586779031096e-06    3.49511661575348e-06
168                      22                      10                5.656854    -0.00998974391944815     0.00969741364546813       0.011088777702515
169                      22                      10                2.828427   -7.94312579682937e-05    0.000107969016671868    0.000249736706369964
170                      22                      10                       0   -8.88397522999412e-06    1.12386795787558e-05    3.55126951568537e-05
171                      24                       8                5.656854   -0.000180783852788723    0.000239668451343355    0.000171345942228975
172                      24                       8                2.828427    -6.2380751468416e-05    7.87740299395295e-05    0.000105959806107522
173                      24                       8                       0   -3.44874634633164e-07    4.18850956922999e-07    8.07315533877677e-07
174                      26                      10                5.656854    -0.00115073159026132    0.000619778573745279     0.00072119345318767
175                      26                      10                2.828427   -1.25844304257425e-05    6.97829649174607e-06    1.47349366801015e-05
176                      26                      10                       0   -2.23469335758176e-06    1.26272379635003e-06    3.71426992337501e-06
177                      28                       8                5.656854   -5.17386322548684e-06    3.39559842364462e-06     2.2840042902761e-06
178                      28                       8                2.828427   -3.51740769177641e-06    2.32237041043166e-06    2.96351389813753e-06
179                      28                       8                       0   -3.36418187755326e-08    2.23458473456855e-08    4.13400837642639e-08
180                      30                      10                5.656854   -8.82584758487714e-06    2.92444042249035e-06     3.0528822639549e-06
181                      30                      10                2.828427   -2.27811422696485e-07     7.7737858957436e-08    1.52204084543691e-07
182                      30                      10                       0   -8.48158969768455e-08    2.95524586969592e-08     8.2774372397101e-08
183                       0                      12                5.656854    7.33423904613296e-09    5.40522140815297e-08    1.09307656883196e-07
184                       0                      12                2.828427    7.09701695438599e-09    5.92039893832874e-08    2.25171435930713e-07
185                       0                      12                       0    8.55618875681372e-11     8.6675342514959e-10    4.63140257758759e-09
186                       2                      14                5.656854    2.32620862161809e-05    3.01294268568302e-07    8.04999035254971e-06
187                       2                      14                2.828427    5.56583115014248e-07    7.71798638761259e-09    3.72688466802045e-07
188                       2                      14                       0    1.90249977724182e-07    2.78416761011208e-09    1.86140201260052e-07
189                       4                      12                5.656854    4.71365775311317e-05    8.69773206074387e-06    2.10425287125775e-05
190                       4                      12                2.828427    2.40390427596417e-05    4.83657608025035e-06    2.05168454943166e-05
191                       4                      12                       0    1.76053400954912e-07    3.78633132424691e-08    2.18590060477384e-07
192                       6                      14                5.656854     0.00400466540204571    6.89375016215347e-05     0.00251644135424034
193                       6                      14                2.828427    3.68002091605942e-05    7.59794738986193e-07    4.35478608520686e-05
194                       6                      14                       0    5.47724408219251e-06    1.26255285728584e-07    9.24296401511913e-06
195                       8                      12                5.656854     0.00309579146476448     0.00112820175359019     0.00317862108827202
196                       8                      12                2.828427    0.000589776262452771     0.00022630974844825     0.00109170121095985
197                       8                      12                       0    2.01096316169832e-06    8.08824416974132e-07    5.04210515917189e-06
198                      10                      14                5.656854     -0.0255645294033245     0.00323533679426199      -0.156923876899369
199                      10                      14                2.828427    0.000223901242309947    1.17607102488153e-05    0.000803489689861058
200                      10                      14                       0    2.05048006359449e-05    1.10370244852752e-06    8.97240755313072e-05
201                      12                      12                5.656854     0.00191381666102106     0.00256316635436274    0.000795660830982629