ITEM: TIMESTEP
0
ITEM: NUMBER OF ATOMS
422
ITEM: BOX BOUNDS ff ff ff
0.0000000000000000e+00 2.3200000000000000e+02
0.0000000000000000e+00 2.3200000000000000e+02
0.0000000000000000e+00 2.3200000000000000e+02
ITEM: ATOMS id xu yu zu fx fy fz
1        113.154775380892        115.992364002731        108.665697187054    -0.00393554568934621    -0.00109757103436408     0.00631866485175885
2        118.828536648911        115.990278050474         108.65790580884     0.00131492750920094    -0.00092618953828501     0.00772548578839902
3        117.380583195867        115.966033314715         108.63509220195   -0.000988195426251862      0.0041997428597938      0.0155827636470701
4        114.562992289012        115.976872192999        108.648774250063     0.00657065558317344     0.00385574454196147      0.0150635939870913
5        116.659762019207        114.708411701602        108.615540851438     -0.0204048499376515      0.0171840476467304      0.0467059954338273
6        115.279937911679        114.753403529524        108.661964920812      0.0251295008788735      0.0165554834962056      0.0399970087830594
7        115.270803466906        117.221483807267        108.655315601879      0.0251829049659465    -0.00954219604733275      0.0405131014220872
8        116.667081708645        117.192946113806        108.625345667224     -0.0175921980318465    -0.00954392212159391      0.0402589232634844
9        114.480094396346        113.510783716764        108.619191475589      0.0325006986110018     -0.0439801810516561       0.180694822378418
10        117.500651513423        113.591499434578        108.696952030692     -0.0448328570572563     -0.0313491561997787       0.142000618194314
11        114.558809761816        118.467291862936        108.702800211043       0.027213803987665      0.0144190014489838       0.128446016985327
12        117.479976603521        118.448617307045        108.681170492866     -0.0459199400741756      0.0162921617889986       0.146400654468806
13        113.087255705985        113.522389033647        108.616798445749     -0.0339912033388064     -0.0341213469050244       0.118316347600532
14          113.0752905003         118.35739645446        108.609695692186     -0.0372741562882852      0.0130369969238392       0.129960742826583
15        118.828177164116         113.54540123152        108.634062937948      0.0158183420973193     -0.0338309922294555       0.126954446282633
16        118.894394336137        118.458591035221         108.70514256464     0.00659278416517999      0.0126189493098386      0.0902279542141614
17        112.445836521798        117.213360627299        108.675894683659    -0.00848899049374891      0.0018896152573448      0.0200079360332022
18        112.405842784606         114.74789354093        108.633467725867     -0.0100623141994322     0.00774933583833827      0.0253867649482055
19        119.566618284231        114.798424199811        108.676851087539      0.0178017276294878      0.0071615804262239      0.0179541584942307
20        119.591335720147        117.248614988078        108.704001745119      0.0163496460149584     0.00303949050821209      0.0141130549335698
21        120.980377666229        114.849677729427        108.682096643604       0.131998533525363       0.124981979524506      0.0291491086747875
22        120.985402196958        117.190899064283        108.689464834708       0.129195639509027     -0.0225006826867984      0.0236790569630186
23        110.981540513026        114.775373669358        108.617768839865    -0.00996347765323071       0.127645007967457      0.0715961317006099
24        111.059634713881        117.189664673009        108.698206700735     -0.0150121629300272     -0.0155422548647277      0.0426640921425782
25        121.600156748431        116.005427365809        108.670284287692     -0.0568360346216712      -0.027013636871411     0.00306355336528618
26        110.412192845348        116.006252249541        108.682356270876    -0.00857399874001716     -0.0286448382923586      -0.011970226605424
27        121.604038221471        118.180764316574        108.651696175647      -0.173882990131644     -0.0489367634052752       0.186460534541158
28        121.600207810226        113.784727093221        108.643459523526       -0.18183657385829     -0.0828899955064547        0.17906108504578
29        110.353723813922         118.16853455049        108.650763063194      0.0249357293954449     -0.0551592442444271       0.159077146222193
30        110.325970375093        113.748574301562        108.618603384832      0.0282891078555751     -0.0877635633365482       0.163378391367371
31        112.622466799359         112.63805477721        108.679453977117     -0.0148150967366105      0.0243322192469243      0.0106188490594769
32        112.598500538693        119.355880359302        108.662251038093      -0.014871024981087      0.0175401101258859     0.00586079060757542
33         119.37667553024         112.61862573192        108.653215997288      0.0594776088985518      0.0282642942590615     0.00603514297945291
34        119.333989302642        119.317731355889          108.6172930955      0.0536941671905639      0.0137592774304901    0.000286188239268766
35        115.007228026986        112.613902017999        108.701795454119     0.00451109804994617      0.0149965510216904   -0.000736408790395218
36        114.928403590167        119.374700627626        108.629832481485     0.00463689343756781      0.0130858499732768    -0.00469802139967174
37        116.993010866084        112.546043851802        108.631872942063      0.0236743716854795      0.0143393856912014    -0.00129008629680169
38        116.963903580098        119.356559613152        108.609627122567      0.0215444573319771      0.0115972233719735    -0.00426921985947967
39                     100                     100              105.656854       0.212232769277953       0.214085612253877      -0.975688465273688
40                     100                     100              102.828427       0.431953848042802       0.430330912202121   -0.000392446274164839
41                     100                     100                     100       0.212192737528229       0.213520254321512       0.976348764548392
42                     102                     102              105.656854      -0.344590234397415      -0.347762866023899      -0.277973569991961
43                     102                     102              102.828427     -0.0508156911782182     -0.0481591842047181     0.00072563167615662
44                     102                     102                     100      -0.344545732557245      -0.346591654072622       0.276794793865406
45                     104                     100              105.656854      0.0958078385019071       0.960257638658749      -0.808945227743079
46                     104                     100              102.828427     -0.0637842489341494       0.726536621033563   -0.000305159644037866
47                     104                     100                     100      0.0961670722714045       0.959569640907411       0.809421456388732
48                     106                     102              105.656854      -0.149108843237269      -0.515216386901617       -0.38146145552816
49                     106                     102              102.828427        0.14220879508797      0.0667807289433511    0.000442460721074377
50                     106                     102                     100      -0.150111161612049      -0.513926017266543       0.380817544128359
51                     108                     100              105.656854       0.109487273514488        1.06026800648962      -0.801919891566384
52                     108                     100              102.828427      -0.111487527169464       0.639716661576865    0.000219185258038588
53                     108                     100                     100       0.110552021791255        1.06015146510636       0.801491451998991
54                     110                     102              105.656854      -0.142974389789008      -0.582088647913724      -0.373819063560987
55                     110                     102              102.828427       0.147783281997269       0.134978980017268   -0.000898049377894929
56                     110                     102                     100      -0.145417534477195      -0.582725827351999       0.375394296013919
57                     112                     100              105.656854       0.131567772173719        1.10850672853792      -0.810705767966191
58                     112                     100              102.828427      -0.135370475433158       0.589370665215219     0.00114554303375635
59                     112                     100                     100       0.132764543888618          1.109920920846       0.808744221971629
60                     114                     102              105.656854        -0.1636494671877      -0.618803267011999      -0.361314799839183
61                     114                     102              102.828427       0.168615498116014       0.174853360139415    -0.00261727731669892
62                     114                     102                     100      -0.165180728313825      -0.622714479609121       0.365667526699241
63                     116                     100              105.656854       0.166527499881862        1.14391058692433      -0.821274466711436
64                     116                     100              102.828427      -0.170718656975468       0.552257028018034     0.00166675623652601
65                     116                     100                     100       0.166544487298577        1.14629207280293       0.818462856360811
66                     118                     102              105.656854      -0.209484758222781      -0.650941380508221      -0.347868497449332
67                     118                     102              102.828427       0.214337112484401       0.208056986369265    -0.00263875544320183
68                     118                     102                     100      -0.208007935559915      -0.654881593431843       0.352253352462946
69                     120                     100              105.656854       0.223208524155058        1.18251627159067      -0.835287770258705
70                     120                     100              102.828427      -0.228627229753891       0.512920688953626     0.00117020061093279
71                     120                     100                     100         0.2220412449606        1.18396202115836       0.833286554874574
72                     122                     102              105.656854      -0.288772047142879      -0.688107225653525      -0.330254197130377
73                     122                     102              102.828427       0.293558240027716       0.244434271159789   -0.000956044853291616
74                     122                     102                     100      -0.286366847505821      -0.688824528717843       0.331920212464657
75                     124                     100              105.656854        0.32633532474161        1.23679447900843      -0.852141216859522
76                     124                     100              102.828427       -0.32297588053697       0.459424588958889    0.000260451339553254
77                     124                     100                     100        0.32528387963379        1.23673053255712       0.851644474277356
78                     126                     102              105.656854      -0.461627851934334      -0.727840215802095      -0.331988001976941
79                     126                     102              102.828427       0.397176880464598       0.281826065275989    0.000370793560995671
80                     126                     102                     100       -0.46062433908039      -0.726644396328666       0.331461135003693
81                     128                     100              105.656854       0.708217250125114        1.34078898826421      -0.754768751684563
82                     128                     100              102.828427      -0.280877424561676       0.396011921321385    -0.00026204032359081
83                     128                     100                     100       0.707851794362189        1.34015074579322       0.755171531952919
84                     130                     102              105.656854       -1.34052669040252      -0.708800245423693      -0.755381739696467
85                     130                     102              102.828427      -0.395926201903002       0.281075651261865    0.000666299818895781
86                     130                     102                     100       -1.34054656073348      -0.707694048820637       0.754303378096906
87                     100                     104              105.656854        0.95924768710893       0.100190039654091      -0.808422402059758
88                     100                     104              102.828427       0.727542234065545       -0.06735536693627    -0.00108985099260589
89                     100                     104                     100       0.958633629852519      0.0988174781259261       0.810217809165343
90                     102                     106              105.656854      -0.514073040291795      -0.157374234101456       -0.38282633992152
91                     102                     106              102.828427      0.0654304638076838       0.148388762323584     0.00227263130020365
92                     102                     106                     100      -0.512589604491902      -0.154249199788256       0.379195513247545
93                     104                     104              105.656854       0.247329247425465       0.253243088731755      -0.388481634002582
94                     104                     104              102.828427      -0.180065929631488       -0.18466743755874     -0.0014201281889517
95                     104                     104                     100       0.247379184453152       0.250619398158569       0.390711975686984
96                     106                     106              105.656854      -0.233315636985838      -0.245689610998095      -0.504820850860085
97                     106                     106              102.828427       0.225333101450796       0.233787592143873     0.00289093096317456
98                     106                     106                     100       -0.23412915556684      -0.239324216864656         0.5002733981394
99                     108                     104              105.656854       0.172912471558525       0.339099689606137      -0.375190237618913
100                     108                     104              102.828427      -0.176996947382609      -0.269064486725797   -0.000421101121520302
101                     108                     104                     100       0.175963906058239       0.336885198331549       0.375720421989425
102                     110                     106              105.656854      -0.180821904771567      -0.293769174608641      -0.490150124287214
103                     110                     106              102.828427       0.191504224014564        0.28592102064511   -0.000855228802179425
104                     110                     106                     100      -0.190530000253266      -0.291909313583729       0.491741024677419
105                     112                     104              105.656854       0.166330592008276       0.379425927634795       -0.39097333508535
106                     112                     104              102.828427      -0.173698120627802      -0.314529630699948     0.00301617907666918
107                     112                     104                     100       0.171475527588881       0.383457630181663       0.385912450968024
108                     114                     106              105.656854      -0.187175110500538      -0.307088210933782      -0.466624335652682
109                     114                     106              102.828427        0.19690932075406       0.311541640364482    -0.00860267580021869
110                     114                     106                     100      -0.194803420036481      -0.322219018380186       0.481520558563914
111                     116                     104              105.656854       0.198072067481164       0.404877341248068      -0.406571520182619
112                     116                     104              102.828427      -0.203305843955417      -0.343972764684356     0.00535242256158894
113                     116                     104                     100       0.198120954524229       0.413844361655122       0.397736902860938
114                     118                     106              105.656854      -0.241709511458205      -0.329139505715935      -0.450652944839885
115                     118                     106              102.828427       0.243676712009655       0.334383949804427    -0.00867114391872611
116                     118                     106                     100      -0.234242578685824      -0.344390594783952       0.465649756290395
117                     120                     104              105.656854       0.260885591211028       0.435919104536679      -0.421747078927921
118                     120                     104              102.828427      -0.265136434679261      -0.372930661808292     0.00308831365514427
119                     120                     104                     100       0.255825755849641       0.440055234247012       0.416581410224552
120                     122                     106              105.656854      -0.319199490817287      -0.363374786149531      -0.438214156991737
121                     122                     106              102.828427       0.320270690110949       0.357996256618742      -0.001035697758716
122                     122                     106                     100      -0.309624056425389      -0.361799506235915       0.440083540183465
123                     124                     104              105.656854       0.368244434653842        0.46413142428506      -0.438595857391178
124                     124                     104              102.828427      -0.362596781136102      -0.398099620844597   -0.000301917411201697
125                     124                     104                     100       0.365221703142523       0.462095251294755       0.438939552210811
126                     126                     106              105.656854      -0.465952100734523      -0.369576087204593      -0.441571112002896
127                     126                     106              102.828427       0.400993183122037       0.361792061289338     0.00268109529600927
128                     126                     106                     100      -0.465080310227596      -0.363528354147782       0.437361056556447
129                     128                     104              105.656854       0.727881049063792       0.462511119394321       -0.33069584099854
130                     128                     104              102.828427      -0.282547743564811      -0.397191528585045    -0.00131128460193849
131                     128                     104                     100       0.727788728979455       0.460026120602441       0.332748957434359
132                     130                     106              105.656854       -1.23644583151135      -0.328400637851154      -0.853574107961015
133                     130                     106              102.828427      -0.458900842448807       0.323965587645124     0.00213522965480922
134                     130                     106                     100       -1.23782713138472      -0.325425465057918       0.850167928404476
135                     100                     108              105.656854        1.06331437672674       0.116818298514405      -0.799920290160587
136                     100                     108              102.828427        0.63798162332934      -0.117048822355376    -0.00256709527788936
137                     100                     108                     100        1.06078951577236       0.114322129987263       0.804072058501073
138                     102                     110              105.656854      -0.590529090827445      -0.155893881631034      -0.379234431377124
139                     102                     110              102.828427       0.139077243646645       0.156495073800247     0.00557293886083079
140                     102                     110                     100      -0.583980295641252      -0.150610388323732       0.370328175274118
141                     104                     108              105.656854       0.338813056775663       0.190105743950294      -0.370901631889354
142                     104                     108              102.828427       -0.26735104342081      -0.188059521096785    -0.00512131004123571
143                     104                     108                     100        0.33488985035238       0.182325581356332       0.379108021420224
144                     106                     110              105.656854      -0.299354829373745      -0.219988973288105      -0.507264007707748
145                     106                     110              102.828427       0.283594389724375       0.210744751003559      0.0119881505932052
146                     106                     110                     100      -0.288619410921531      -0.199508094949996       0.484915036182587
147                     108                     108              105.656854       0.221972337921387       0.252246529497928      -0.358114119070322
148                     108                     108              102.828427      -0.228776166864699      -0.244852566634312    -0.00552391446614363
149                     108                     108                     100       0.227917393738108       0.236002095841516       0.368474844550716
150                     110                     110              105.656854      -0.178992541363235      -0.259558269896371      -0.492845800267557
151                     110                     110              102.828427       0.215407000191343       0.243546236347444     0.00593777726015911
152                     110                     110                     100      -0.221465805853335      -0.232583726206511       0.474766824498884
153                     112                     108              105.656854       0.174491048615919       0.257526881035712      -0.393082860996885
154                     112                     108              102.828427      -0.197484392771575      -0.269600526360623     0.00781080291156898
155                     112                     108                     100       0.200930023887781       0.267359030020224       0.378246966426182
156                     114                     110              105.656854      -0.176202203826694      -0.185335552120453      -0.385869537696092
157                     114                     110              102.828427       0.208255392266553       0.246353026058915     -0.0264928147671237
158                     114                     110                     100      -0.213073010563319      -0.249209524317211       0.469716845311422
159                     116                     108              105.656854       0.219862243815545       0.250048717444367      -0.425908259307156
160                     116                     108              102.828427      -0.225944560381499      -0.281835446944587      0.0191018921307374
161                     116                     108                     100       0.220096391786394       0.286037409326545       0.388982430402393
162                     118                     110              105.656854      -0.286441931969512      -0.195974572869969      -0.367300959757279
163                     118                     110              102.828427       0.266899886056794       0.257823599597922     -0.0266183782243396
164                     118                     110                     100      -0.249449102813662      -0.260216267403947       0.452381142450342
165                     120                     108              105.656854        0.30016818406987       0.290804739718591      -0.428179890103693
166                     120                     108              102.828427       -0.29044382943547      -0.304211090569759     0.00800579790526464
167                     120                     108                     100       0.273949803117491       0.300928556604504        0.41295485964979
168                     122                     110              105.656854      -0.356319985725284      -0.292845900085276      -0.435362400819862
169                     122                     110              102.828427       0.333767384001711       0.278145294250136      0.0055370758116344
170                     122                     110                     100      -0.315084897055489      -0.266072445579501       0.418509925490197
171                     124                     108              105.656854       0.374790927262653       0.321052603700235      -0.430961560282184
172                     124                     108              102.828427      -0.368044626684933      -0.316482504616127    -0.00514032264514633
173                     124                     108                     100       0.368899617520956       0.305533459100888       0.440598238458726
174                     126                     110              105.656854      -0.436569438532965      -0.274914322105539      -0.435015561671225
175                     126                     110              102.828427       0.380070708611349       0.268171636843542       0.011388329508313
176                     126                     110                     100      -0.446761580887619      -0.255317504415315       0.413892699126425
177                     128                     108              105.656854       0.687950294631537       0.293762726809366      -0.326429002104828
178                     128                     108              102.828427      -0.246516431200351       -0.29533675803339    -0.00483522884161336
179                     128                     108                     100       0.691632858434065       0.286343118522952       0.334164538614899
180                     130                     110              105.656854       -1.17932491245498      -0.227944826376234      -0.838991203462142
181                     130                     110              102.828427      -0.513000951061132       0.231070614323822     0.00528507498125916
182                     130                     110                     100       -1.18553608468742      -0.222896826191555       0.830557285471069
183                     100                     112              105.656854        1.11886553477787        0.13816343695285      -0.806361711445583
184                     100                     112              102.828427       0.583040269937693      -0.140131917544076    -0.00456411491780193
185                     100                     112                     100         1.1129819673718       0.135799646127187       0.813682002079102
186                     102                     114              105.656854      -0.639874921920784      -0.170379244906111      -0.371629112583881
187                     102                     114              102.828427       0.185607775435914       0.172981723832879     0.00896579202662657
188                     102                     114                     100      -0.626886591121489      -0.167653345213125       0.357177643840217
189                     104                     112              105.656854       0.402779689861585       0.187689520346753      -0.374250703582433
190                     104                     112              102.828427       -0.32285151354302       -0.18575249506991     -0.0123412172148413
191                     104                     112                     100       0.385168864717809        0.17759671002042       0.395445514857221
192                     106                     114              105.656854      -0.358061270493956      -0.208291507934627      -0.518330812737731
193                     106                     114              102.828427       0.322620831959628       0.207724506582635      0.0242427299440519
194                     106                     114                     100      -0.322731554149982      -0.199592481073214       0.466012392276753
195                     108                     112              105.656854       0.285584937450715       0.258517057835796      -0.303799550712969
196                     108                     112              102.828427      -0.262506238985406      -0.223484168228447     -0.0230261319373969
197                     108                     112                     100       0.261337477498391       0.211000170681451       0.389887559984552
198                     110                     114              105.656854      -0.157533436413884      -0.193030704771035      -0.774249424318927
199                     110                     114              102.828427       0.223081636695768       0.225543866800548      0.0173024156292085
200                     110                     114                     100      -0.239246784455685       -0.21989263400197       0.455956447583846
201                     112                     112              105.656854      0.0938898900618518       0.228291839182352      -0.425936310059042