ITEM: TIMESTEP
0
ITEM: NUMBER OF ATOMS
422
ITEM: BOX BOUNDS ff ff ff
0.0000000000000000e+00 2.3200000000000000e+02
0.0000000000000000e+00 2.3200000000000000e+02
0.0000000000000000e+00 2.3200000000000000e+02
ITEM: ATOMS id xu yu zu fx fy fz
1        111.845932193839        115.983520815677              108.656854     0.00397419911283977    -0.00119624136506527    -0.00635832731500627
2        117.527484840071        115.989226241634              108.656854      -0.010973191917006   -0.000815384498625945      0.0147861217524579
3        116.102344993917        115.987795112765              108.656854     0.00264543502557654     0.00294653636700642   -8.48725279554421e-05
4        113.271072038949        115.984951942936              108.656854   -0.000852913258091057     0.00344430579800609      0.0116639751668212
5        115.401075167769        114.749724850164              108.656854      0.0218694775801851      0.0142400120851419       0.032333395849807
6        113.974826990867        114.748292608712              108.656854     0.00295957307352884       0.042867060807159       0.134967027978063
7        113.972341865028        117.223022205388              108.656854     0.00288036949285021     -0.0354501891131409       0.130485482941122
8        115.398590041422        117.224454446583              108.656854      0.0213845032468548    -0.00659516727911408      0.0311699767429217
9        113.217756920757        113.548446241175              108.656854     -0.0471691058950488     -0.0318895484148119       0.122296104695347
10        116.160553482731        113.551401403886              108.656854     -0.0229635891675794     -0.0159807950242662      0.0157487371835846
11        113.212863550773        118.421345651893              108.656854     -0.0479428600661054      0.0118674548323508       0.125781304092226
12        116.155660110655        118.424300814179              108.656854     -0.0225019952093577    -0.00295095641048134      0.0179294857958095
13        111.827311260236        113.562444587898              108.656854      0.0232381752332326     -0.0163385775481543      0.0152591584586639
14        111.822448808114        118.404554762274              108.656854      0.0234113510970373    0.000210075164259446      0.0175988606365393
15        117.550968226168        113.568192293572              108.656854     -0.0604636035614556     -0.0379147637371119       0.166177963568083
16        117.546105771496         118.41030247058              108.656854     -0.0606487061422983      0.0211244542931634        0.16924880487521
17        111.126795838139         117.19431994364              108.656854      0.0263497858550302    -0.00751305366613937       0.051096943985054
18         111.12922905874        114.771279815063              108.656854      0.0271200388023457      0.0167510424451889      0.0533599934903795
19        118.246621196692        114.778427112272              108.656854      0.0170272330772088      0.0379318808078252       0.123667682227105
20        118.244187975028         117.20146724296              108.656854      0.0165336603165731     -0.0288635289724366       0.120579898309382
21        119.655135022624        114.824435085822              108.656854       0.104573023498694       0.112464025844728      0.0287615961782523
22        119.652791362251        117.158288229576              108.656854       0.102413223492202    -0.00904583565456231      0.0247220662381677
23        109.720625673161        114.814458829493              108.656854     0.00746743389467208       0.142966205570757      0.0861210118719912
24        109.718282013145        117.148311972274              108.656854     0.00977113101753832     -0.0375135367621977      0.0783749746520309
25         120.28672646074        115.991997078118              108.656854     -0.0509228879150315     -0.0271068460151515     -0.0443849020726109
26        109.086690574472        115.980749978664              108.656854     -0.0487956871037773     -0.0271250374802688     -0.0314702539468157
27        120.309196045824        118.185922140926              108.656854      -0.159665501428079     -0.0516788014056712      0.0290034962632848
28          120.3136022867        113.798121569695              108.656854      -0.165381041815654     -0.0756875068900844      0.0181190825828139
29        109.059814750727        118.174625487296              108.656854     -0.0828032099644652     -0.0564217838889313       0.080183973813653
30         109.06422099026         113.78682491673              108.656854      -0.078434775631593     -0.0758971730952577      0.0684145451455236
31        111.299866822243        112.615454800093              108.656854      -0.040971967944275      0.0255966923040295      0.0119674122761638
32        111.293103500599        119.350483321209              108.656854     -0.0398766595768191      0.0162292261797297     0.00569692246099246
33        118.080313532952        112.622263734631              108.656854       0.068075672099501      0.0243474249583353     -0.0113893786909178
34        118.073550207142        119.357292260389              108.656854      0.0665766170813445      0.0173383260639212     -0.0170464284581137
35        113.662286572867         112.56896056388              108.656854      0.0185710841556296      0.0131187286857323    -0.00565463707386495
36        113.655425108682        119.401722146141              108.656854      0.0186982842196319      0.0146300038922456    -0.00938605382302771
37        115.717991924022        112.571024909739              108.656854     0.00817738027699111      0.0161001829183021     0.00648169065173911
38        115.711130457531        119.403786490585              108.656854     0.00764712517218337      0.0114790333041203     0.00242736164033138
39                     100                     100              105.656854        0.21187872453786       0.214053070394755      -0.975673384570927
40                     100                     100              102.828427       0.432267410450369       0.430393667908566   -0.000378298212954767
41                     100                     100                     100        0.21193947386199       0.213438640842785       0.976302909597967
42                     102                     102              105.656854      -0.343910055286078       -0.34769835014575      -0.277988946431982
43                     102                     102              102.828427     -0.0513836125447336     -0.0482890705537536    0.000675786051174801
44                     102                     102                     100      -0.344125445326382      -0.346434870872462       0.276905809489098
45                     104                     100              105.656854       0.095286858633471       0.959837150107583      -0.809003537608971
46                     104                     100              102.828427     -0.0633696063927976       0.726912430056136    -0.00016558275147884
47                     104                     100                     100      0.0958775497030197       0.959267389740414       0.809241638980603
48                     106                     102              105.656854      -0.148157374662757      -0.514222924769914      -0.381256427400597
49                     106                     102              102.828427       0.141536149054317      0.0659837760422763    7.07089441050834e-05
50                     106                     102                     100      -0.149712176028451      -0.513365918064561       0.381219170000428
51                     108                     100              105.656854       0.109253819589599        1.05922145500934       -0.80210335460187
52                     108                     100              102.828427       -0.11134195397968       0.640529590236057    0.000537543207895374
53                     108                     100                     100       0.110490899676037        1.05959474682064       0.801155429797071
54                     110                     102              105.656854      -0.143092949823842      -0.579986286459335      -0.373344373216604
55                     110                     102              102.828427       0.147953291714836       0.133533593324783    -0.00158660893267481
56                     110                     102                     100      -0.145604569922426      -0.581869842691681       0.376011558671197
57                     112                     100              105.656854       0.132261279427393        1.10746711169139       -0.81087813105305
58                     112                     100              102.828427      -0.135932615584779       0.590142757958421       0.001440655583171
59                     112                     100                     100       0.133180517493029        1.10942235006211       0.808447472727966
60                     114                     102              105.656854      -0.165533073716558      -0.617762437889661      -0.361128145415911
61                     114                     102              102.828427        0.17000142462696       0.174135942699341    -0.00293269046286946
62                     114                     102                     100      -0.166088894178609       -0.62229251757141       0.365961973923848
63                     116                     100              105.656854       0.167659530640994         1.1439586984222      -0.821202328179937
64                     116                     100              102.828427      -0.171608150715452       0.552257953995787     0.00162798262759225
65                     116                     100                     100        0.16717440407415        1.14626615066161       0.818466611811369
66                     118                     102              105.656854      -0.210957944031507      -0.652168366638441      -0.348275880732349
67                     118                     102              102.828427       0.215460887071805       0.208799677477754    -0.00221391552540272
68                     118                     102                     100      -0.208778252678829      -0.655257597385902       0.351954747519502
69                     120                     100              105.656854        0.22364649344595        1.18339084434016      -0.835035412767601
70                     120                     100              102.828427       -0.22901557799754       0.512317403634396    0.000872920141761963
71                     120                     100                     100       0.222358488331221        1.18432128891264       0.833533950160713
72                     122                     102              105.656854      -0.288496241455126      -0.689568587225978      -0.330714146505677
73                     122                     102              102.828427       0.293469049342873       0.245419302724485   -0.000412414824101853
74                     122                     102                     100      -0.286411087969275      -0.689402220648565       0.331473069623838
75                     124                     100              105.656854       0.326054783995998         1.2374187176502      -0.851953112049085
76                     124                     100              102.828427       -0.32280296154177       0.458950270576354    2.32072969297687e-05
77                     124                     100                     100       0.325211308474515        1.23705327768607       0.851867041617131
78                     126                     102              105.656854      -0.460900751287866      -0.728202328422818      -0.332144180890737
79                     126                     102              102.828427       0.396662531780041       0.282145671855144    0.000571654907948551
80                     126                     102                     100      -0.460320235712763      -0.726898801358206       0.331254264280413
81                     128                     100              105.656854        0.70786726281239        1.34091918082533      -0.754701359068858
82                     128                     100              102.828427      -0.280605505613457       0.395885941492194   -0.000343957837417559
83                     128                     100                     100       0.707667274828726        1.34026586348622       0.755261024231448
84                     130                     102              105.656854       -1.34015997889347      -0.708651868883369      -0.755387605483914
85                     130                     102              102.828427      -0.396235204410608       0.281005239121953    0.000663531381704862
86                     130                     102                     100       -1.34031292617685      -0.707692070892513       0.754286189209971
87                     100                     104              105.656854       0.958716718961626       0.100554148022527       -0.80828738577636
88                     100                     104              102.828427       0.728048694120557     -0.0675328987276386    -0.00119724375813464
89                     100                     104                     100       0.958209278297963      0.0988520031790003       0.810239589433877
90                     102                     106              105.656854      -0.512995774930478      -0.158286354387882      -0.383204599080589
91                     102                     106              102.828427      0.0644221888375106       0.148737368747941     0.00252010682413195
92                     102                     106                     100       -0.51182105675152      -0.154271563262403        0.37919406058333
93                     104                     104              105.656854       0.245860750841905       0.253055237962281      -0.388493404517484
94                     104                     104              102.828427      -0.178960526788876       -0.18434225808358    -0.00124011428318491
95                     104                     104                     100        0.24666877070411       0.250290154700164       0.390421809508861
96                     106                     106              105.656854      -0.229626054598554       -0.24485778251451      -0.504551594420263
97                     106                     106              102.828427       0.223064027149557        0.23282471760587     0.00216872899034171
98                     106                     106                     100      -0.232976665049456      -0.238605036846902       0.501074421786687
99                     108                     104              105.656854       0.171249765012719       0.336437416311608      -0.375949241080724
100                     108                     104              102.828427      -0.176050379165154      -0.267285171730152    0.000626397505420781
101                     108                     104                     100        0.17555054292298       0.335861695503369       0.374819648401606
102                     110                     106              105.656854      -0.179189439535873      -0.286173564718079      -0.487191696283935
103                     110                     106              102.828427       0.191038446845443       0.282154512754577    -0.00373724891754457
104                     110                     106                     100      -0.190595700373627      -0.290252538991581       0.493596812067595
105                     112                     104              105.656854       0.168208490744635       0.375677117875644      -0.392051705687131
106                     112                     104              102.828427      -0.175049738426589      -0.312337671223679     0.00430944700091242
107                     112                     104                     100       0.172351861177814        0.38237016142845        0.38495121883863
108                     114                     106              105.656854      -0.194198951217823       -0.30308318608764      -0.465165711925666
109                     114                     106              102.828427       0.201043905552225       0.309578193788607     -0.0100875580856425
110                     114                     106                     100      -0.196967482317917      -0.321399646451647       0.482457087099065
111                     116                     104              105.656854        0.20187413415575       0.405398435491228      -0.406278667084012
112                     116                     104              102.828427      -0.205855524924558      -0.344189467279387     0.00516222044387067
113                     116                     104                     100       0.199627267309683       0.413903950162114       0.397801040270826
114                     118                     106              105.656854      -0.246512601055878       -0.33489469929454      -0.453201368700498
115                     118                     106              102.828427       0.246639813805001       0.336951820745766    -0.00660943720818595
116                     118                     106                     100      -0.235912276576793      -0.345379648651796       0.464556929238245
117                     120                     104              105.656854       0.261442511981682        0.43923853166055      -0.420562968762017
118                     120                     104              102.828427      -0.265718040631282      -0.374801913924479     0.00188092972256306
119                     120                     104                     100       0.256330621075212       0.440956302676819       0.417398524463528
120                     122                     106              105.656854      -0.315896764264263      -0.367709088511202      -0.440185431783788
121                     122                     106              102.828427       0.318867589330643       0.360332590145681    0.000843211007831784
122                     122                     106                     100      -0.309238512361581      -0.362927828687703       0.438838193889782
123                     124                     104              105.656854       0.366648202150544         0.4652996772553      -0.438117597512997
124                     124                     104              102.828427      -0.361644783056324      -0.398965180852983   -0.000886330141821249
125                     124                     104                     100       0.364778111436313       0.462654757428016       0.439451645467386
126                     126                     106              105.656854       -0.46380245122951      -0.368872277263454      -0.441442036716505
127                     126                     106              102.828427       0.399505711817309       0.361761111007264     0.00272814456054669
128                     126                     106                     100      -0.464241275564515      -0.363742984185026       0.437118514426442
129                     128                     104              105.656854        0.72706010828264       0.462191244351887      -0.330719714640089
130                     128                     104              102.828427      -0.281897576318908      -0.397094086938913    -0.00130155194945257
131                     128                     104                     100       0.727346347619218        0.46007167525833       0.332809330777542
132                     130                     106              105.656854       -1.23611586432397      -0.327493484726776      -0.853310185729048
133                     130                     106              102.828427      -0.459309642113333       0.323481759418687      0.0018336922054443
134                     130                     106                     100       -1.23744883143755      -0.325255549221633       0.850329402134022
135                     100                     108              105.656854        1.06322850190966       0.118136105502106      -0.799269885678254
136                     100                     108              102.828427       0.638435502536081      -0.117740297789335    -0.00317641141882145
137                     100                     108                     100        1.06024470474857       0.114580946750853        0.80437354412006
138                     102                     110              105.656854      -0.591058125699027      -0.159003474029126      -0.381475858283035
139                     102                     110              102.828427       0.138137237920327       0.157716912333668     0.00714709991680928
140                     102                     110                     100      -0.582906762632883      -0.150925955740562       0.369819905596351
141                     104                     108              105.656854       0.336232072441894       0.192687085867913      -0.369539823082476
142                     104                     108              102.828427      -0.265073347162837      -0.188648823678684    -0.00566949521085411
143                     104                     108                     100         0.3334495502138       0.182229766741743       0.378928326138866
144                     106                     110              105.656854       -0.29026048734425      -0.227397004692354      -0.513277259730398
145                     106                     110              102.828427       0.277838435693507       0.211100137793923       0.012557959871995
146                     106                     110                     100      -0.286069144655491      -0.199009759082434        0.48597904403952
147                     108                     108              105.656854       0.211316587984274       0.247265231398545       -0.36087204279357
148                     108                     108              102.828427      -0.224430370000613      -0.241818395980944     -0.0023754387511507
149                     108                     108                     100       0.226432540246083       0.234553562121571        0.36632880401013
150                     110                     110              105.656854      -0.157201807026422      -0.225450198054717      -0.461362114735191
151                     110                     110              102.828427       0.211431892975463       0.236534387581228    -0.00534029813032512
152                     110                     110                     100      -0.220955359207839       -0.23046435441107       0.479400783790544
153                     112                     108              105.656854       0.181221631145231       0.241164152034199      -0.402190797485312
154                     112                     108              102.828427      -0.200876093977645      -0.263844587515434       0.013934088852572
155                     112                     108                     100       0.202689385155769       0.265444448122121       0.375326819889304
156                     114                     110              105.656854      -0.205350843725287      -0.173624807887204      -0.374720484066134
157                     114                     110              102.828427       0.219656352727366       0.243023669884635     -0.0323220780172756
158                     114                     110                     100      -0.217592613085983      -0.248246246588288       0.472102740683401
159                     116                     108              105.656854       0.234959303110083       0.252910535422167      -0.424038170691177
160                     116                     108              102.828427      -0.233551547265322      -0.282839961758867      0.0180450681664796
161                     116                     108                     100       0.223555156131117       0.286342345866776       0.389339120816443
162                     118                     110              105.656854      -0.310472204055226      -0.219521872590182      -0.389799633112271
163                     118                     110              102.828427       0.274508661789764       0.263407053094563     -0.0176940673925562
164                     118                     110                     100      -0.252657384771732      -0.261838876137286       0.449192956940032
165                     120                     108              105.656854       0.298193605667024       0.305638261170713      -0.419351415315603
166                     120                     108              102.828427      -0.290511625752812      -0.309346238643516     0.00254355826688914
167                     120                     108                     100       0.274534822836131       0.302694325306509       0.415473997284699
168                     122                     110              105.656854      -0.327432957851704      -0.301608731692394      -0.444355136494585
169                     122                     110              102.828427       0.326884799831831       0.281708726011714      0.0108290471625989
170                     122                     110                     100      -0.313454074371246      -0.267587476395244       0.415663435322772
171                     124                     108              105.656854       0.367768915734202       0.319850377006013       -0.43123179988094
172                     124                     108              102.828427       -0.36448164097484      -0.317148782802179    -0.00588175860934751
173                     124                     108                     100       0.367457072663939       0.306218585735054       0.441523452985623
174                     126                     110              105.656854      -0.435209672755376      -0.268214019442894      -0.429958467766884
175                     126                     110              102.828427       0.377346877811319       0.266808876020062     0.00930095061725277
176                     126                     110                     100      -0.445073823858675      -0.255327834966307       0.414045641220255
177                     128                     108              105.656854       0.687357354737263       0.291402084931801      -0.327484966424717
178                     128                     108              102.828427      -0.245554741025096      -0.294424117269844    -0.00400915526500157
179                     128                     108                     100       0.690835551575977       0.286158918945553       0.333899193283171
180                     130                     110              105.656854       -1.18044751724352        -0.2259385174442      -0.837694861236142
181                     130                     110              102.828427      -0.513001805779327       0.230109478274612     0.00404529616617859
182                     130                     110                     100       -1.18511721896716      -0.222576754557687       0.831191070624518
183                     100                     112              105.656854        1.12065032819793        0.13985637676755      -0.804576524576481
184                     100                     112              102.828427       0.582883693517595      -0.140997374923267    -0.00616822180829171
185                     100                     112                     100        1.11248566236031       0.136140585283777       0.814486318840716
186                     102                     114              105.656854      -0.644221380901176      -0.172314292002796      -0.376852606687965
187                     102                     114              102.828427       0.185371522583017       0.173802678104606        0.01241132949196
188                     102                     114                     100      -0.625712355779397      -0.167923115969254       0.356008301707794
189                     104                     112              105.656854       0.406057107647188       0.194328134953045      -0.364689293203843
190                     104                     112              102.828427      -0.320049479582636      -0.187251105242985     -0.0160026906514545
191                     104                     112                     100       0.382976054749605       0.177790435597243       0.395907740149345
192                     106                     114              105.656854      -0.349573859420931       -0.20675388874029      -0.548461087716823
193                     106                     114              102.828427        0.31333018685629       0.207876809920729      0.0284548715589256
194                     106                     114                     100      -0.318888026003214      -0.199510589471135       0.467008337863139
195                     108                     112              105.656854       0.235392850944191       0.272213002186667      -0.276256232388978
196                     108                     112              102.828427      -0.249762060813405      -0.220843686720689     -0.0171481748074434
197                     108                     112                     100       0.258082452822607       0.209920481095567        0.38614121497153
198                     110                     114              105.656854     -0.0641503375323582      -0.204739548293278      -0.718334471348687
199                     110                     114              102.828427       0.215752536630407       0.222592287098714    -0.00524709542463975
200                     110                     114                     100      -0.238239701581627      -0.219113046097863        0.46328903557064
201                     112                     112              105.656854       0.144817423038996       0.201526729344028      -0.497657821728181