ITEM: TIMESTEP
0
ITEM: NUMBER OF ATOMS
422
ITEM: BOX BOUNDS ff ff ff
0.0000000000000000e+00 2.3200000000000000e+02
0.0000000000000000e+00 2.3200000000000000e+02
0.0000000000000000e+00 2.3200000000000000e+02
ITEM: ATOMS id xu yu zu fx fy fz
1        112.845932193839        115.983520815677              108.656854    -0.00329724015549917   -0.000943998063105298     0.00107131274838801
2        118.527484840071        115.989226241634              108.656854    0.000263491561190392   -0.000816410514932718      0.0138811365376138
3        117.102344993917        115.987795112765              108.656854   -0.000749331683708716     0.00323412911244348     0.00851449486715554
4        114.271072038949        115.984951942936              108.656854     0.00503692455256638      0.0036362846686022      0.0176959793979828
5        116.401075167769        114.749724850164              108.656854    -0.00922398880225013      0.0108971249772363      0.0208841648144285
6        114.974826990867        114.748292608712              108.656854      0.0303208485539338      0.0246019028012568      0.0685812375674727
7        114.972341865028        117.223022205388              108.656854      0.0295230270637235     -0.0170849942132727      0.0663051871877859
8        116.398590041422        117.224454446583              108.656854    -0.00885620865023475    -0.00317475802815189      0.0197544701189638
9        114.217756920757        113.548446241175              108.656854      0.0123955901927989     -0.0409375463968668       0.183527456351741
10        117.160553482731        113.551401403886              108.656854     -0.0574088562564706     -0.0307205748301769        0.11588605259571
11        114.212863550773        118.421345651893              108.656854      0.0123086444237907      0.0205748803840708       0.188988137986095
12        117.155660110655        118.424300814179              108.656854     -0.0575252420945035      0.0112322194258474       0.118763733445117
13        112.827311260236        113.562444587898              108.656854     -0.0252110508124577     -0.0242581033651258      0.0689876883502348
14        112.822448808114        118.404554762274              108.656854     -0.0257925751571285     0.00747961218802146      0.0714673087703698
15        118.550968226168        113.568192293572              108.656854      0.0062111715883298     -0.0362416713378426       0.155017803927127
16        118.546105771496         118.41030247058              108.656854     0.00686463832277331      0.0198475748727851       0.159044629669715
17        112.126795838139         117.19431994364              108.656854    0.000247209382408415     0.00493035390683986      0.0122906338003225
18         112.12922905874        114.771279815063              108.656854   -4.11017874262796e-05     0.00458712479147037      0.0132923753929358
19        119.246621196692        114.778427112272              108.656854      0.0268103229930124      0.0138532330531975      0.0416975726174754
20        119.244187975028         117.20146724296              108.656854      0.0261969803921315    -0.00480803694603355      0.0404835513530334
21        120.655135022624        114.824435085822              108.656854       0.130715659062765         0.1170874350295      0.0292563166244326
22        120.652791362251        117.158288229576              108.656854       0.128813273042693     -0.0155492215858773      0.0249390743647544
23        110.720625673161        114.814458829493              108.656854    -0.00919150001463325       0.134363026658218      0.0697804528463789
24        110.718282013145        117.148311972274              108.656854    -0.00876441739839225     -0.0277597917284248      0.0633982681112632
25         121.28672646074        115.991997078118              108.656854     -0.0640062284878415     -0.0264344703101174    -0.00716816276158003
26        110.086690574472        115.980749978664              108.656854     -0.0199559540398585     -0.0273291189164804    -0.00614536491164501
27        121.309196045824        118.185922140926              108.656854      -0.193465420034764     -0.0464716226560653       0.150133637028539
28          121.3136022867        113.798121569695              108.656854      -0.199401839512347     -0.0785341721715563       0.139609317133844
29        110.059814750727        118.174625487296              108.656854    -0.00562731219242197     -0.0542592361777864       0.169509815072951
30         110.06422099026         113.78682491673              108.656854    -0.00184008940140089     -0.0802965491932721       0.156464445192363
31        112.299866822243        112.615454800093              108.656854     -0.0212470129436052      0.0266287325126025      0.0169437772005552
32        112.293103500599        119.350483321209              108.656854     -0.0207485148887622       0.015412605599514      0.0107302877706352
33        119.080313532952        112.622263734631              108.656854      0.0560051237081693      0.0262493265116273     0.00112686856071243
34        119.073550207142        119.357292260389              108.656854      0.0539759290965927       0.014846461838881    -0.00472334228005813
35        114.662286572867         112.56896056388              108.656854      0.0061355343451463      0.0138450005712517    -0.00376261253798105
36        114.655425108682        119.401722146141              108.656854     0.00607516880276235      0.0138925135560233    -0.00765909564640769
37        116.717991924022        112.571024909739              108.656854      0.0211919065528765      0.0154584078316015     0.00209079632394479
38        116.711130457531        119.403786490585              108.656854      0.0203683984046622       0.011950429123547    -0.00175816526421348
39                     100                     100              105.656854       0.212106924581849       0.214024862403616      -0.975677018311612
40                     100                     100              102.828427       0.432068970991517        0.43039513867892   -0.000381271111693827
41                     100                     100                     100       0.212096990327009       0.213459794011527       0.976319444510991
42                     102                     102              105.656854       -0.34436884991137      -0.347664469072715      -0.277985407616892
43                     102                     102              102.828427     -0.0510074270688404     -0.0482629653753127    0.000695038327193033
44                     102                     102                     100      -0.344398653466704      -0.346498500674337       0.276854671227766
45                     104                     100              105.656854      0.0956403801516426       0.960077110559768       -0.80894843376294
46                     104                     100              102.828427     -0.0636434451541838       0.726700524516225   -0.000258580091145469
47                     104                     100                     100      0.0960624733850374       0.959437329700617       0.809350372435567
48                     106                     102              105.656854      -0.148819045453245      -0.514854665044347      -0.381424999440128
49                     106                     102              102.828427       0.141989783247794      0.0664806169433112    0.000323595798003172
50                     106                     102                     100      -0.149969996182608      -0.513710471184193       0.380964121552853
51                     108                     100              105.656854       0.109392310445339        1.05990381349859      -0.801950741399079
52                     108                     100              102.828427      -0.111417006112317       0.640015422200031    0.000316027936251628
53                     108                     100                     100       0.110509507800261        1.05993622920749       0.801371373511336
54                     110                     102              105.656854      -0.142943622644413      -0.581397218231715      -0.373715882673644
55                     110                     102              102.828427       0.147777018400036       0.134473689057196    -0.00111131220992402
56                     110                     102                     100      -0.145431000095749      -0.582408562747885       0.375613574825907
57                     112                     100              105.656854        0.13172109001872        1.10810628710477      -0.810735489839343
58                     112                     100              102.828427      -0.135495329084754       0.589689054960357     0.00124537436173277
59                     112                     100                     100       0.132858686168794        1.10970076635933       0.808623561458937
60                     114                     102              105.656854      -0.164110794076768      -0.618309741403304      -0.361272242460231
61                     114                     102              102.828427       0.168958306997578       0.174485704718592    -0.00275557704263272
62                     114                     102                     100      -0.165409289092944      -0.622481593540909       0.365821870334328
63                     116                     100              105.656854       0.166841366753341        1.14376898169066      -0.821244551832741
64                     116                     100              102.828427      -0.170968931649088       0.552391166162233     0.00168514920404106
65                     116                     100                     100       0.166725447391106        1.14618564693184       0.818415876689789
66                     118                     102              105.656854      -0.209941809152771      -0.651035136541895      -0.347977974368331
67                     118                     102              102.828427       0.214690888354326       0.208069370019498    -0.00258286952361549
68                     118                     102                     100      -0.208254789772041       -0.65485753920779       0.352250214392765
69                     120                     100              105.656854       0.223397231886229         1.1826250033311      -0.835206247273836
70                     120                     100              102.828427      -0.228792910398087       0.512870242271271     0.00111065858307993
71                     120                     100                     100       0.222174883344564        1.18397412492626       0.833314684502084
72                     122                     102              105.656854      -0.288835975057886      -0.688371268997781      -0.330398403230459
73                     122                     102              102.828427       0.293647101904329       0.244584551444772     -0.0008344959805773
74                     122                     102                     100      -0.286461777597055      -0.688896537157029       0.331846269816992
75                     124                     100              105.656854       0.326347146589406        1.23690787902246      -0.852067853905908
76                     124                     100              102.828427       -0.32300722344658       0.459353161759728    0.000197287986767138
77                     124                     100                     100       0.325327511987297        1.23676994252287       0.851687573483614
78                     126                     102              105.656854      -0.461539581156537      -0.727917982438279      -0.332065555585716
79                     126                     102              102.828427       0.397136198548914       0.281880681406288    0.000434109890642482
80                     126                     102                     100      -0.460621777001306      -0.726682730923794       0.331415766308968
81                     128                     100              105.656854       0.708185128676901        1.34082024159846      -0.754725592129287
82                     128                     100              102.828427      -0.280864223650788       0.395990108627679   -0.000296417316825246
83                     128                     100                     100       0.707854827363529        1.34016711788671        0.75519642912326
84                     130                     102              105.656854       -1.34048372910844      -0.708780580725085      -0.755415344256046
85                     130                     102              102.828427      -0.395951913659377       0.281064488470479    0.000685964407548952
86                     130                     102                     100       -1.34053625192496      -0.707694171450821       0.754290383367732
87                     100                     104              105.656854       0.959043473586776       0.100197685862888      -0.808386684940511
88                     100                     104              102.828427        0.72773321166642     -0.0673327234343435    -0.00109139529614751
89                     100                     104                     100       0.958476204072461      0.0987792258435806       0.810186083881283
90                     102                     106              105.656854      -0.513693514769483      -0.157447574826361      -0.382904060767664
91                     102                     106              102.828427      0.0650887540489845       0.148373030466247     0.00227276380578069
92                     102                     106                     100      -0.512332653262837      -0.154196067858955       0.379263461442849
93                     104                     104              105.656854       0.246894110629046       0.253061318298115      -0.388479541468339
94                     104                     104              102.828427      -0.179723399395734      -0.184481101766987    -0.00133410062531423
95                     104                     104                     100        0.24714831242856       0.250467240781024       0.390582011950537
96                     106                     106              105.656854      -0.232320111352027      -0.245264173605043      -0.504748759690614
97                     106                     106              102.828427       0.224681483398629       0.233403643109422     0.00262270944824556
98                     106                     106                     100       -0.23377502477777      -0.239064820963548       0.500572501333596
99                     108                     104              105.656854       0.172408767882861       0.338262116223274      -0.375360470458934
100                     108                     104              102.828427      -0.176682844597479       -0.26847481856545   -0.000102065057986019
101                     108                     104                     100       0.175805418270414       0.336532592640061       0.375413208627897
102                     110                     106              105.656854      -0.180174731066519      -0.291567438392334      -0.489413287906615
103                     110                     106              102.828427       0.191243472761455       0.284764951318789    -0.00171680834157898
104                     110                     106                     100      -0.190469130918127      -0.291379011711971       0.492353055277907
105                     112                     104              105.656854       0.166697975796752       0.378174144453037      -0.391250751380711
106                     112                     104              102.828427      -0.173969287991694      -0.313751555622927     0.00344291007316177
107                     112                     104                     100       0.171658158820352       0.383047156154803       0.385553114340212
108                     114                     106              105.656854      -0.188856630421928      -0.305444580528962      -0.466134551653245
109                     114                     106              102.828427       0.197893474117021        0.31068897763454    -0.00922389899837557
110                     114                     106                     100      -0.195322549414373      -0.321841164855322       0.481965068752017
111                     116                     104              105.656854        0.19907385946744       0.404623396074047      -0.406526658409787
112                     116                     104              102.828427      -0.203985594518994      -0.343754486166322      0.0054282584261416
113                     116                     104                     100       0.198529712348242        0.41369987184719       0.397620038313191
114                     118                     106              105.656854       -0.24312822410481      -0.329979843693758      -0.451184723603168
115                     118                     106              102.828427       0.244568716187686         0.3346710617596    -0.00837784090640072
116                     118                     106                     100      -0.234753144330753      -0.344463961171755       0.465572258473805
117                     120                     104              105.656854       0.261232196247117       0.436495690997463      -0.421442973717085
118                     120                     104              102.828427      -0.265435134798909      -0.373203737323436     0.00285884764859386
119                     120                     104                     100       0.256054546795753       0.440159727556742        0.41669239789868
120                     122                     106              105.656854      -0.318745971047222      -0.364293995235781      -0.438769558571672
121                     122                     106              102.828427       0.320176833617454       0.358425710209182   -0.000628981460800192
122                     122                     106                     100      -0.309686819689514      -0.361989711626874       0.439867743723667
123                     124                     104              105.656854       0.368018464739772       0.464377166636012      -0.438420422157148
124                     124                     104              102.828427      -0.362506729904393      -0.398253820941566   -0.000448087322834063
125                     124                     104                     100       0.365221214060475       0.462185601791723       0.439036366984837
126                     126                     106              105.656854      -0.465566742240307      -0.369423710553985      -0.441627751973862
127                     126                     106              102.828427       0.400771545272845       0.361775491691788     0.00271897129516481
128                     126                     106                     100       -0.46498909445555       -0.36356926519869       0.437312287062041
129                     128                     104              105.656854        0.72775898934022          0.462452687992      -0.330650443782947
130                     128                     104              102.828427       -0.28247051561928      -0.397170101940275    -0.00133440177832642
131                     128                     104                     100       0.727752645692832       0.460033721391848       0.332768481809019
132                     130                     106              105.656854       -1.23642060901047      -0.328219772478854      -0.853566561175757
133                     130                     106              102.828427      -0.458935902192973       0.323871999631321     0.00209611873086071
134                     130                     106                     100       -1.23779572806744      -0.325399348968362       0.850191628225805
135                     100                     108              105.656854        1.06313147476324       0.117020888603695       -0.79978932213627
136                     100                     108              102.828427       0.638210728619002      -0.117143340638756     -0.0026472695827428
137                     100                     108                     100        1.06057803525677       0.114346982006587       0.804075564295003
138                     102                     110              105.656854      -0.590328887291672      -0.156415285126797       -0.37963190614358
139                     102                     110              102.828427       0.138679459406273       0.156697855077005     0.00578404492236799
140                     102                     110                     100      -0.583628615671719      -0.150659124258617        0.37032750963776
141                     104                     108              105.656854       0.338005477527851       0.190417069985326      -0.370669852537348
142                     104                     108              102.828427      -0.266674110572024      -0.188059652873967    -0.00510874062335984
143                     104                     108                     100        0.33445766440694       0.182243135767489       0.378944606666616
144                     106                     110              105.656854      -0.297114255037041      -0.221118022344856      -0.508216480017622
145                     106                     110              102.828427        0.28210863592138       0.210716838826305      0.0118264304977901
146                     106                     110                     100      -0.287918645573014      -0.199368851535029       0.485349644819133
147                     108                     108              105.656854       0.219247813206983       0.250778768944969      -0.358780520263141
148                     108                     108              102.828427      -0.227562732391464      -0.243960024522046    -0.00457765352223284
149                     108                     108                     100       0.227458614637787       0.235576335607398       0.367781154483129
150                     110                     110              105.656854      -0.172018214517424      -0.251684854178143      -0.485580426424806
151                     110                     110              102.828427        0.21402836057592       0.241768512901091     0.00279967045674235
152                     110                     110                     100      -0.221201364614238      -0.232048427532712       0.476161439121369
153                     112                     108              105.656854       0.175597627130619       0.252421682774697      -0.395770757241719
154                     112                     108              102.828427      -0.198092549618372      -0.267820883344096     0.00974933619053077
155                     112                     108                     100        0.20127228063207       0.266758477850837        0.37725046721643
156                     114                     110              105.656854      -0.183950937732228      -0.180747825657072       -0.38128994025659
157                     114                     110              102.828427       0.210971702885054       0.245190781173228     -0.0288113896298803
158                     114                     110                     100      -0.214124288063239      -0.248892347927972       0.470727242405144
159                     116                     108              105.656854       0.223742359020367        0.24977924541215      -0.425812569372543
160                     116                     108              102.828427      -0.227885016093209      -0.281623175378455      0.0193255726107441
161                     116                     108                     100       0.220988402101567       0.285935378620922       0.388742811937954
162                     118                     110              105.656854      -0.291819603337688      -0.199637367931747      -0.371312211903699
163                     118                     110              102.828427       0.268962100671244       0.258687579237055     -0.0252618056973402
164                     118                     110                     100      -0.250370212364557      -0.260490345604844        0.45202522287034
165                     120                     108              105.656854        0.30049379822254       0.293705550138944      -0.426176972271992
166                     120                     108              102.828427       -0.29084380236943      -0.305119210803004     0.00696021283074113
167                     120                     108                     100       0.274285081781556       0.301225562837721       0.413345742453318
168                     122                     110              105.656854      -0.350295217058218      -0.295400511952133      -0.438477729736764
169                     122                     110              102.828427       0.332682168677344       0.278887104215393     0.00668034045095073
170                     122                     110                     100      -0.314960030119131      -0.266405100939471       0.417995151780985
171                     124                     108              105.656854       0.373338131784598       0.320790111161697      -0.430839981791696
172                     124                     108              102.828427      -0.367442771092523      -0.316609579573766    -0.00532846605874217
173                     124                     108                     100       0.368729192909295       0.305676487342558       0.440768196050682
174                     126                     110              105.656854      -0.436420956366093      -0.273272150136208      -0.433866798523919
175                     126                     110              102.828427       0.379603398618421        0.26789649465892      0.0109139297816276
176                     126                     110                     100      -0.446504762496744      -0.255360391377674       0.413934854537349
177                     128                     108              105.656854       0.687908638993727       0.293230362132814      -0.326596819142555
178                     128                     108              102.828427      -0.246393520365961      -0.295146340842021    -0.00467533668983575
179                     128                     108                     100       0.691534655362244       0.286320521491684       0.334111218931374
180                     130                     110              105.656854       -1.17965835068311      -0.227532510214819      -0.838760799665183
181                     130                     110              102.828427       -0.51293386136493       0.230896504856408     0.00503609839182825
182                     130                     110                     100       -1.18549781258602      -0.222861772779996       0.830680973243491
183                     100                     112              105.656854        1.11898614649245       0.138505256385394      -0.806025847935645
184                     100                     112              102.828427        0.58317705983938      -0.140320043948828    -0.00482009604504013
185                     100                     112                     100        1.11276910195932       0.135885996635535       0.813774273900741
186                     102                     114              105.656854      -0.640372612431375      -0.170862683721818      -0.372553159061263
187                     102                     114              102.828427       0.185360543911412       0.173228828480811     0.00952761175163104
188                     102                     114                     100      -0.626526602400897      -0.167767996704382       0.357041997438814
189                     104                     112              105.656854       0.402812004584794       0.188899215736314      -0.372718134491769
190                     104                     112              102.828427      -0.322023914934648      -0.186082167855097     -0.0128528724463008
191                     104                     112                     100       0.384565234884333        0.17766578187648       0.395380423826871
192                     106                     114              105.656854      -0.356554907721946      -0.208969447418736      -0.523367074673625
193                     106                     114              102.828427       0.320553721995615       0.208002279641178      0.0248829697830165
194                     106                     114                     100      -0.321781979422994      -0.199689171859797       0.466403629055819
195                     108                     112              105.656854       0.276157133054537        0.26183329123953      -0.298769325293484
196                     108                     112              102.828427        -0.2594147306321      -0.223099716994907     -0.0214841110548838
197                     108                     112                     100       0.260454229676148       0.210820844766624        0.38879344968898
198                     110                     114              105.656854      -0.121618864166779      -0.197594140560015      -0.760851063846676
199                     110                     114              102.828427       0.220629238751593       0.225235656935722      0.0118825639995827
200                     110                     114                     100      -0.238851979525883      -0.219887997247457        0.45791605724779
201                     112                     112              105.656854       0.104164834510859       0.220281380955264      -0.452014644171657