ITEM: TIMESTEP
0
ITEM: NUMBER OF ATOMS
422
ITEM: BOX BOUNDS ff ff ff
0.0000000000000000e+00 2.3200000000000000e+02
0.0000000000000000e+00 2.3200000000000000e+02
0.0000000000000000e+00 2.3200000000000000e+02
ITEM: ATOMS id xu yu zu fx fy fz
1        113.135692575426        115.973281197265        108.646614381588      -0.587453023260347      0.0406718802704001     -0.0129819784936115
2        118.797773249221        115.959514650784         108.62714240915         2.2899713668117           2.37217765321     -0.0509691421357201
3        117.398523472914        115.983973591762        108.653032478997     -0.0116325324235688      -0.949483135523057      0.0572470142678704
4          114.5736327824        115.987512686387        108.659414743451       -1.22887974375898      -0.488270049777539      0.0098457138897359
5        116.684199625405          114.7328493078        108.639978457636        0.11214591606293      -0.394907201806977    -0.00454074781521849
6        115.247757907305        114.721223525149        108.629784916437       0.313854608231218        1.15139963326624      0.0102570023334363
7        115.249454620019        117.200134960379        108.633966754991        1.42641897316424       0.870635408906692     -0.0528991617765668
8        116.695467771443        117.221332176604        108.653731730021       0.339793519980997      -0.791033787334161       0.105374725385817
9         114.47524559007        113.505934910488        108.614342669313       0.445211103438787     -0.0109212932463364    -0.00460353343261179
10          117.4372698259        113.528117747055        108.633570343169        0.35418877770366     -0.0184459941034386     0.00877942943810458
11        114.542527211412        118.451009312532        108.686517660639       -1.93399286695358      -0.847979184904333     -0.0080734155231202
12        117.410031563362        118.378672266886        108.611225452707         1.1365955964368        2.56744240815957     -0.0380177494351348
13        113.108508171907        113.543641499568        108.638050911671      -0.400009810706476      -0.846740162278725      0.0386578287805482
14        113.112226338051        118.394332292211        108.646631529937       0.789682376665649         1.1363783930408       0.055811011896453
15        118.869749443017        113.586973510421        108.675635216849       0.724599567406633      -0.765027517337403      0.0495667473638889
16        118.873673675261        118.437870374345        108.684421903764       -1.09673983881331       -2.24338164188379      -0.080926215624774
17        112.408784255257        117.176308360758        108.638842417118       0.589881120515126        2.25473169229526      -0.117928485507926
18        112.407095168344        114.749145924668        108.634720109605       0.899448087660972        2.42295666267616     -0.0348058764039705
19        119.590591621019        114.822397536599        108.700824424327       -2.95290570150281       -3.02499873445747       0.104880681679927
20        119.521252608104        117.178531876035        108.633918633075       0.849972281840978        0.15909999320386     -0.0123442972738565
21        120.936136904184        114.805436967383         108.63785588156         1.0844009126895         3.0044975961879      -0.142320308860835
22        120.909307829021        117.114804696346         108.61337046677        1.12432189494527        0.25293309900524      0.0353182677726281
23        111.062640197397        114.856473353728        108.698868524236       -2.07676096947948       -2.43815470478195     -0.0411134107534564
24        111.060908242156        117.190938201284         108.69948022901       -3.49003602281177        -3.3748122111373      0.0909597909092326
25         121.55742825038        115.962698867759        108.627555789641      -0.212397975954315      -0.390162917200847     -0.0549511918980612
26        110.399136683566        115.993196087758        108.669300109094        2.27171104183665       0.268596537296887       0.129335782854606
27        121.620811846926        118.197537942029        108.668469801102      -0.647077344532823       0.426120454033326     -0.0177252906669065
28         121.61805514517        113.802574428164        108.661306858469       -1.30989991100105      -0.889147216154189      0.0661894918428684
29        110.329123752992         118.14393448956        108.626163002264         2.5474776764248        1.95047952411353     -0.0737194176661034
30        110.335459958464        113.758063884933        108.628092968203       0.571833726619954       -0.38292613144661      0.0675869317707597
31        112.607873211766        112.623461189617        108.664860389523      -0.309216288939589       0.168317716965426      0.0029155539675117
32        112.642168546982        119.399548367592        108.705919046383       -0.84810031473431      -0.395536630216455      -0.017817940720051
33        119.417243667964        112.659193869643        108.693784135012      0.0660713309411591      0.0390189006730419     0.00150254273802459
34        119.392261374839        119.376003428085        108.675565167696        0.18426230536092      -0.102054589835713      -0.020845032900982
35        114.969347174124        112.576021165137        108.663914601257     0.00249703726000729     0.00113377689313619    -0.00362050340752615
36        114.927352719204        119.373649756663        108.628781610522        1.00396635077342      -0.420785914674973     -0.0326008179230574
37        116.986574919889        112.539607905607        108.625436995868      -0.478128835984939       0.218053631711084    -0.00712254283741632
38        117.046216274385        119.438872307439        108.691939816854       -1.54507439191404      -0.529875943807291     -0.0043014558345064
39                     100                     100              105.656854                       0                       0                       0
40                     100                     100              102.828427                       0                       0                       0
41                     100                     100                     100                       0                       0                       0
42                     102                     102              105.656854                       0                       0                       0
43                     102                     102              102.828427                       0                       0                       0
44                     102                     102                     100                       0                       0                       0
45                     104                     100              105.656854                       0                       0                       0
46                     104                     100              102.828427                       0                       0                       0
47                     104                     100                     100                       0                       0                       0
48                     106                     102              105.656854                       0                       0                       0
49                     106                     102              102.828427                       0                       0                       0
50                     106                     102                     100                       0                       0                       0
51                     108                     100              105.656854                       0                       0                       0
52                     108                     100              102.828427                       0                       0                       0
53                     108                     100                     100                       0                       0                       0
54                     110                     102              105.656854                       0                       0                       0
55                     110                     102              102.828427                       0                       0                       0
56                     110                     102                     100                       0                       0                       0
57                     112                     100              105.656854                       0                       0                       0
58                     112                     100              102.828427                       0                       0                       0
59                     112                     100                     100                       0                       0                       0
60                     114                     102              105.656854                       0                       0                       0
61                     114                     102              102.828427                       0                       0                       0
62                     114                     102                     100                       0                       0                       0
63                     116                     100              105.656854                       0                       0                       0
64                     116                     100              102.828427                       0                       0                       0
65                     116                     100                     100                       0                       0                       0
66                     118                     102              105.656854                       0                       0                       0
67                     118                     102              102.828427                       0                       0                       0
68                     118                     102                     100                       0                       0                       0
69                     120                     100              105.656854                       0                       0                       0
70                     120                     100              102.828427                       0                       0                       0
71                     120                     100                     100                       0                       0                       0
72                     122                     102              105.656854                       0                       0                       0
73                     122                     102              102.828427                       0                       0                       0
74                     122                     102                     100                       0                       0                       0
75                     124                     100              105.656854                       0                       0                       0
76                     124                     100              102.828427                       0                       0                       0
77                     124                     100                     100                       0                       0                       0
78                     126                     102              105.656854                       0                       0                       0
79                     126                     102              102.828427                       0                       0                       0
80                     126                     102                     100                       0                       0                       0
81                     128                     100              105.656854                       0                       0                       0
82                     128                     100              102.828427                       0                       0                       0
83                     128                     100                     100                       0                       0                       0
84                     130                     102              105.656854                       0                       0                       0
85                     130                     102              102.828427                       0                       0                       0
86                     130                     102                     100                       0                       0                       0
87                     100                     104              105.656854                       0                       0                       0
88                     100                     104              102.828427                       0                       0                       0
89                     100                     104                     100                       0                       0                       0
90                     102                     106              105.656854                       0                       0                       0
91                     102                     106              102.828427                       0                       0                       0
92                     102                     106                     100                       0                       0                       0
93                     104                     104              105.656854                       0                       0                       0
94                     104                     104              102.828427                       0                       0                       0
95                     104                     104                     100                       0                       0                       0
96                     106                     106              105.656854                       0                       0                       0
97                     106                     106              102.828427                       0                       0                       0
98                     106                     106                     100                       0                       0                       0
99                     108                     104              105.656854                       0                       0                       0
100                     108                     104              102.828427                       0                       0                       0
101                     108                     104                     100                       0                       0                       0
102                     110                     106              105.656854                       0                       0                       0
103                     110                     106              102.828427                       0                       0                       0
104                     110                     106                     100                       0                       0                       0
105                     112                     104              105.656854                       0                       0                       0
106                     112                     104              102.828427                       0                       0                       0
107                     112                     104                     100                       0                       0                       0
108                     114                     106              105.656854                       0                       0                       0
109                     114                     106              102.828427                       0                       0                       0
110                     114                     106                     100                       0                       0                       0
111                     116                     104              105.656854                       0                       0                       0
112                     116                     104              102.828427                       0                       0                       0
113                     116                     104                     100                       0                       0                       0
114                     118                     106              105.656854                       0                       0                       0
115                     118                     106              102.828427                       0                       0                       0
116                     118                     106                     100                       0                       0                       0
117                     120                     104              105.656854                       0                       0                       0
118                     120                     104              102.828427                       0                       0                       0
119                     120                     104                     100                       0                       0                       0
120                     122                     106              105.656854                       0                       0                       0
121                     122                     106              102.828427                       0                       0                       0
122                     122                     106                     100                       0                       0                       0
123                     124                     104              105.656854                       0                       0                       0
124                     124                     104              102.828427                       0                       0                       0
125                     124                     104                     100                       0                       0                       0
126                     126                     106              105.656854                       0                       0                       0
127                     126                     106              102.828427                       0                       0                       0
128                     126                     106                     100                       0                       0                       0
129                     128                     104              105.656854                       0                       0                       0
130                     128                     104              102.828427                       0                       0                       0
131                     128                     104                     100                       0                       0                       0
132                     130                     106              105.656854                       0                       0                       0
133                     130                     106              102.828427                       0                       0                       0
134                     130                     106                     100                       0                       0                       0
135                     100                     108              105.656854                       0                       0                       0
136                     100                     108              102.828427                       0                       0                       0
137                     100                     108                     100                       0                       0                       0
138                     102                     110              105.656854                       0                       0                       0
139                     102                     110              102.828427                       0                       0                       0
140                     102                     110                     100                       0                       0                       0
141                     104                     108              105.656854                       0                       0                       0
142                     104                     108              102.828427                       0                       0                       0
143                     104                     108                     100                       0                       0                       0
144                     106                     110              105.656854                       0                       0                       0
145                     106                     110              102.828427                       0                       0                       0
146                     106                     110                     100                       0                       0                       0
147                     108                     108              105.656854                       0                       0                       0
148                     108                     108              102.828427                       0                       0                       0
149                     108                     108                     100                       0                       0                       0
150                     110                     110              105.656854                       0                       0                       0
151                     110                     110              102.828427                       0                       0                       0
152                     110                     110                     100                       0                       0                       0
153                     112                     108              105.656854                       0                       0                       0
154                     112                     108              102.828427                       0                       0                       0
155                     112                     108                     100                       0                       0                       0
156                     114                     110              105.656854                       0                       0                       0
157                     114                     110              102.828427                       0                       0                       0
158                     114                     110                     100                       0                       0                       0
159                     116                     108              105.656854                       0                       0                       0
160                     116                     108              102.828427                       0                       0                       0
161                     116                     108                     100                       0                       0                       0
162                     118                     110              105.656854                       0                       0                       0
163                     118                     110              102.828427                       0                       0                       0
164                     118                     110                     100                       0                       0                       0
165                     120                     108              105.656854                       0                       0                       0
166                     120                     108              102.828427                       0                       0                       0
167                     120                     108                     100                       0                       0                       0
168                     122                     110              105.656854                       0                       0                       0
169                     122                     110              102.828427                       0                       0                       0
170                     122                     110                     100                       0                       0                       0
171                     124                     108              105.656854                       0                       0                       0
172                     124                     108              102.828427                       0                       0                       0
173                     124                     108                     100                       0                       0                       0
174                     126                     110              105.656854                       0                       0                       0
175                     126                     110              102.828427                       0                       0                       0
176                     126                     110                     100                       0                       0                       0
177                     128                     108              105.656854                       0                       0                       0
178                     128                     108              102.828427                       0                       0                       0
179                     128                     108                     100                       0                       0                       0
180                     130                     110              105.656854                       0                       0                       0
181                     130                     110              102.828427                       0                       0                       0
182                     130                     110                     100                       0                       0                       0
183                     100                     112              105.656854                       0                       0                       0
184                     100                     112              102.828427                       0                       0                       0
185                     100                     112                     100                       0                       0                       0
186                     102                     114              105.656854                       0                       0                       0
187                     102                     114              102.828427                       0                       0                       0
188                     102                     114                     100                       0                       0                       0
189                     104                     112              105.656854                       0                       0                       0
190                     104                     112              102.828427                       0                       0                       0
191                     104                     112                     100                       0                       0                       0
192                     106                     114              105.656854                       0                       0                       0
193                     106                     114              102.828427                       0                       0                       0
194                     106                     114                     100                       0                       0                       0
195                     108                     112              105.656854                       0                       0                       0
196                     108                     112              102.828427                       0                       0                       0
197                     108                     112                     100                       0                       0                       0
198                     110                     114              105.656854                       0                       0                       0
199                     110                     114              102.828427                       0                       0                       0
200                     110                     114                     100                       0                       0                       0
201                     112                     112              105.656854                       0                       0                       0