ITEM: TIMESTEP
0
ITEM: NUMBER OF ATOMS
422
ITEM: BOX BOUNDS ff ff ff
0.0000000000000000e+00 2.3200000000000000e+02
0.0000000000000000e+00 2.3200000000000000e+02
0.0000000000000000e+00 2.3200000000000000e+02
ITEM: ATOMS id xu yu zu fx fy fz
1        113.129572388971         115.96716101081        108.640494195133       0.681725757672355        1.31782865493212       0.161503668534546
2        118.847692018458        116.009433420022        108.677061178387       -3.03261143464681       -3.32920807536762      -0.565057744282474
3          117.4217534889        116.007203607748        108.676262494983       -1.12885871492647        -1.2901416001875      -0.204481011916678
4        114.547996963362        115.961876867349        108.633778924413     -0.0701434466013347      -0.117936873001959      -0.177049805249176
5        116.694695769422        114.743345451817        108.650474601653       -1.00502194246909      -0.714847700353253      -0.295913254595284
6        115.242095182314        114.715560800159        108.624122191447        1.42513863819152        1.23466625538048       0.182130977391532
7        115.247361405334        117.198041745694        108.631873540307        3.33455967080164        2.96585520991683       0.831954682734301
8        116.702288519477        117.228152924638        108.660552478055       0.561267070614031       0.808020714670116       0.174859683815565
9        114.484301567998        113.514990888416        108.623398647241        3.48023950364982        2.95049339372436       0.600538579938538
10        117.420657219721        113.511505140876         108.61695773699        4.16382855741329        4.58832393736423       0.656602517109874
11        114.560070645775        118.468552746896        108.704061095003        -6.5386561243764       -6.86427718123298       -1.10877719475074
12          117.4981941528        118.466834856323        108.699388042144       -1.68531898492485       -1.71329998591236     -0.0465124268159069
13        113.170232206854        113.605365534515        108.699774946618       -6.92889756807713       -7.06348600907901       -1.02420010883141
14        113.092929683352        118.375035637513        108.627334875239        6.15057366223178        5.86554023370226        1.36053339487712
15        118.845130478339        113.562354545743        108.651016252171       -1.63769016889881      -0.556659043739071      -0.107863234705301
16        118.892501285422        118.456697984506        108.703249513926       -3.58221974972389        -4.7539795762113      -0.498062357439468
17         112.46172601597        117.229250121471        108.691784177831       -3.60776159457189       -4.41973421210058      -0.617103975423581
18        112.401916925606         114.74396768193        108.629541866867        4.08352074701011        4.53337732984918       0.956619827427416
19        119.524531170879        114.756337086459        108.634763974187        2.39782506468761        3.25487088726288       0.549794543106056
20        119.518797461789         117.17607672972        108.631463486761        5.56767837040139         5.3507301697483        1.32886829651056
21        120.957091109952        114.826391173151        108.658810087328      -0.271332605878082     -0.0724630444333359      -0.112706455547502
22        120.982188870443        117.187685737768        108.686251508192       -6.42875690217306       -7.82802424137614      -0.884354461199664
23        111.052905800528        114.846738956859        108.689134127367       -7.50399276879955       -8.79006948667334       -1.50511759266243
24        111.049562102059        117.179592061187        108.688134088914     0.00252331675069549      0.0975904825579105       0.209435280609138
25          121.6054526134        116.010723230779        108.675580152661     -0.0536258528259595      -0.465743871023079       0.225141030574627
26        110.413461548589        116.007520952782        108.683624974118       0.857808136103168       0.772037252119559       0.278815460654226
27        121.570681796242        118.147407891344        108.618339750418        3.53632591736486        5.30413188453448       0.199089129458637
28        121.607640206354        113.792159489349        108.650891919654      0.0745488984769382       0.282160519729006       0.204570071672893
29        110.393760710964        118.208571447533        108.690799960237      -0.155246388088525      -0.147201703125205       0.125518724542262
30        110.315843078511        113.738447004981        108.608476088251        4.56987560215157        6.53624171837734        1.04799580806332
31         112.56256352215        112.578151500001        108.619550699908        1.99458901445838        2.86149554265181       0.628214473130932
32         112.63957902527         119.39695884588         108.70332952467       -0.62921155009713       -1.43550289549018      -0.357671876322575
33        119.423148248396        112.665098450075        108.699688715444      -0.143454335701534      -0.683516458508369     -0.0453818174663948
34        119.349716259205        119.333458312451        108.633020052062        1.93148628175935        2.30284323775076      0.0584718591515358
35        114.993270932731        112.599944923744        108.687838359864      -0.567023616322361        -1.2107943458641      -0.161493381323559
36        114.921948678903        119.368245716362        108.623377570221        1.94445645854956        2.77642231369759      0.0721538867364925
37        117.064363369033        112.617396354751        108.703225445011       -1.85318452066927       -2.95174346766082    -0.00804917041350264
38        117.021569912043        119.414225945097        108.667293454512      0.0332360787726913       0.577824958022264       0.067476636948785
39                     100                     100              105.656854       0.212271002269886       0.214127658165899       -0.97569351281208
40                     100                     100              102.828427       0.431917465665973       0.430291828853185   -0.000399264823523476
41                     100                     100                     100       0.212224100458434       0.213552783371306       0.976363592189962
42                     102                     102              105.656854      -0.344648211490363      -0.347833819604877       -0.27796951356982
43                     102                     102              102.828427     -0.0507626462698668     -0.0480970608539409    0.000742594484223618
44                     102                     102                     100      -0.344588703878923      -0.346638968326971       0.276766536730945
45                     104                     100              105.656854      0.0958432490683925       0.960328962881505      -0.808951087962023
46                     104                     100              102.828427     -0.0638181664478071       0.726471832598582   -0.000317635049439688
47                     104                     100                     100      0.0961958756085248       0.959621497851082       0.809445137959205
48                     106                     102              105.656854      -0.149151335661599      -0.515335319787233      -0.381456835858002
49                     106                     102              102.828427       0.142249718717104      0.0668827424780353    0.000470122423215176
50                     106                     102                     100      -0.150144792788771      -0.514000693744406       0.380774433255871
51                     108                     100              105.656854       0.109504356438713        1.06036206417526      -0.801928335667999
52                     108                     100              102.828427      -0.111505323539185       0.639630481913543    0.000203299172936195
53                     108                     100                     100       0.110567558823156        1.06022001009608       0.801521946467668
54                     110                     102              105.656854      -0.142984693548987      -0.582224637229195      -0.373808294203526
55                     110                     102              102.828427       0.147795539542522        0.13510156462535   -0.000867951597522633
56                     110                     102                     100      -0.145427984638163      -0.582817580503912       0.375343377570425
57                     112                     100              105.656854       0.131564079970459        1.10861017345771      -0.810717080218525
58                     112                     100              102.828427      -0.135366903140845       0.589275184614907     0.00112897846707681
59                     112                     100                     100       0.132760501559349        1.10999669458677       0.808777155141484
60                     114                     102              105.656854       -0.16363957059606      -0.618958849529243      -0.361305055803858
61                     114                     102              102.828427       0.168600164780617       0.174986260419918    -0.00258274832504501
62                     114                     102                     100      -0.165163268056982      -0.622809983731924       0.365614194316217
63                     116                     100              105.656854       0.166492297773827        1.14401443380012      -0.821287198919049
64                     116                     100              102.828427      -0.170686357220317       0.552164618539017     0.00165140114991136
65                     116                     100                     100       0.166516841192027        1.14636284920549       0.818492872918581
66                     118                     102              105.656854      -0.209402280120525      -0.651084528995555      -0.347856298855543
67                     118                     102              102.828427       0.214268236606295       0.208171795684516    -0.00260973233520053
68                     118                     102                     100      -0.207955319313794      -0.654959772767891       0.352210557823745
69                     120                     100              105.656854       0.223143195806327        1.18257986851087      -0.835306076242502
70                     120                     100              102.828427      -0.228570023285908       0.512860401698459     0.00116603320114028
71                     120                     100                     100       0.221995583135105        1.18401023661175       0.833303729303316
72                     122                     102              105.656854      -0.288672880834094      -0.688148744039926      -0.330225745577379
73                     122                     102              102.828427       0.293473966203898       0.244479445060972   -0.000957139539135337
74                     122                     102                     100      -0.286302977505049      -0.688862285923447       0.331905632832222
75                     124                     100              105.656854       0.326281095883949        1.23680819386311      -0.852162933658033
76                     124                     100              102.828427      -0.322924815654998       0.459404446962971    0.000269245158674746
77                     124                     100                     100       0.325240474504669        1.23675126964773       0.851646256866333
78                     126                     102              105.656854      -0.461577229928451      -0.727830340798185      -0.331959324712498
79                     126                     102              102.828427        0.39712547882229       0.281828310615416    0.000354026487117507
80                     126                     102                     100      -0.460578586797697      -0.726652970682133       0.331465987712347
81                     128                     100              105.656854        0.70818706573248        1.34078315333387      -0.754787241251961
82                     128                     100              102.828427       -0.28084558147972       0.396011426316509   -0.000249431412178517
83                     128                     100                     100       0.707821470163017        1.34015520465529        0.75516552760586
84                     130                     102              105.656854       -1.34050447355333      -0.708786314826764      -0.755361353074353
85                     130                     102              102.828427      -0.395952515050974       0.281068403623669    0.000650416828582152
86                     130                     102                     100       -1.34051937192318      -0.707691897608725        0.75431305546535
87                     100                     104              105.656854       0.959325145313174       0.100244727031552      -0.808425446495607
88                     100                     104              102.828427       0.727473367523838     -0.0674022046672913    -0.00110811824104633
89                     100                     104                     100       0.958687745291286      0.0988519064899815       0.810246660353996
90                     102                     106              105.656854      -0.514214550074772      -0.157478604736083      -0.382833967720442
91                     102                     106              102.828427       0.065544231932826       0.148466567151337     0.00232064136128205
92                     102                     106                     100      -0.512668523865068      -0.154296779521398        0.37913761126126
93                     104                     104              105.656854       0.247419038491489       0.253376525790574      -0.388478795844539
94                     104                     104              102.828427      -0.180143351477957      -0.184772776977123    -0.00146206089686938
95                     104                     104                     100       0.247436763855618       0.250689211871452       0.390766969216627
96                     106                     106              105.656854      -0.233444235934196      -0.245978300099435      -0.504854249167308
97                     106                     106              102.828427       0.225437153677394       0.233976764673805     0.00299676793428783
98                     106                     106                     100      -0.234199660958004      -0.239424789751769       0.500166176393914
99                     108                     104              105.656854       0.172942733862866       0.339298396190533      -0.375191634491911
100                     108                     104              102.828427      -0.177034571471395      -0.269224056591783   -0.000478304631986024
101                     108                     104                     100       0.175996739146773       0.336989462143475       0.375797056724304
102                     110                     106              105.656854      -0.180767374023973      -0.294035797719612      -0.490127384567531
103                     110                     106              102.828427       0.191510754492781       0.286146704478145   -0.000755864507707936
104                     110                     106                     100      -0.190550215243186      -0.292041365890965       0.491613447581356
105                     112                     104              105.656854       0.166348395396682        0.37960793357451      -0.390988971883139
106                     112                     104              102.828427       -0.17370534010319       -0.31469639279713      0.0029610895751238
107                     112                     104                     100       0.171475407335115       0.383573631929731       0.385995557436611
108                     114                     106              105.656854      -0.187340235356288       -0.30740809552969       -0.46664567417282
109                     114                     106              102.828427       0.196937730532687       0.311779152790686    -0.00847377829687553
110                     114                     106                     100      -0.194785978253538      -0.322354550026109       0.481383167267507
111                     116                     104              105.656854       0.198037105184909       0.405160656230827      -0.406555221713247
112                     116                     104              102.828427      -0.203259638358725      -0.344165949258739     0.00527116831208934
113                     116                     104                     100       0.198076552721371       0.413957792793151       0.397823040726115
114                     118                     106              105.656854      -0.241447995687575      -0.329671595870479      -0.450769811062218
115                     118                     106              102.828427       0.243510570017068        0.33463186183086    -0.00849874320418249
116                     118                     106                     100       -0.23414173679604      -0.344500741899569        0.46552768625637
117                     120                     104              105.656854       0.260695785780217        0.43606743870785       -0.42176482841252
118                     120                     104              102.828427      -0.264999594410533      -0.373040316079506     0.00305023396827016
119                     120                     104                     100       0.255736616295505       0.440123524147255       0.416630164042755
120                     122                     106              105.656854      -0.318914828520962      -0.363364238277228      -0.438142345598488
121                     122                     106              102.828427       0.320077287451295       0.358024071018238    -0.00103598175042117
122                     122                     106                     100      -0.309506841543699      -0.361831365505445       0.440055918983934
123                     124                     104              105.656854       0.368141444460723       0.464112704741064      -0.438643690212779
124                     124                     104              102.828427      -0.362503541810477       -0.39810659171939   -0.000282214490695149
125                     124                     104                     100       0.365149255454136       0.462111681008701       0.438941448047693
126                     126                     106              105.656854      -0.465909761480263      -0.369511490706042      -0.441506734619293
127                     126                     106              102.828427       0.400929694694256       0.361766578835567     0.00263765797183764
128                     126                     106                     100      -0.465017976350594      -0.363525620449924       0.437376991028496
129                     128                     104              105.656854       0.727850137584899       0.462485345267968      -0.330728955437293
130                     128                     104              102.828427      -0.282508411302301      -0.397179551823528    -0.00128682869454354
131                     128                     104                     100       0.727748565152664        0.46002385647893       0.332736542269493
132                     130                     106              105.656854       -1.23643255193795      -0.328376333299109      -0.853542345569817
133                     130                     106              102.828427      -0.458926049420423       0.323950097564481     0.00210838221017823
134                     130                     106                     100       -1.23779596743426      -0.325417551736533       0.850184939128808
135                     100                     108              105.656854        1.06346374454993       0.116855831261418      -0.799916878775907
136                     100                     108              102.828427       0.637861466056902      -0.117076093239068    -0.00260463045786179
137                     100                     108                     100        1.06087293126801       0.114337205863377       0.804118957632106
138                     102                     110              105.656854      -0.590847014724609      -0.155935201032524      -0.379272883806903
139                     102                     110              102.828427       0.139288851400864       0.156511069576868     0.00567120105077616
140                     102                     110                     100      -0.584100566442475      -0.150609549252925       0.370238247315767
141                     104                     108              105.656854       0.339114652162832       0.190347151280022      -0.370838303622253
142                     104                     108              102.828427      -0.267549067560805      -0.188196537268352    -0.00525649050985336
143                     104                     108                     100        0.33500197427621       0.182385824134326       0.379226191444564
144                     106                     110              105.656854      -0.300170497077087      -0.220714006612244      -0.507679035142817
145                     106                     110              102.828427       0.283934312735403       0.210973400076534      0.0123947513972596
146                     106                     110                     100      -0.288760020797384       -0.19955842272364       0.484684855644017
147                     108                     108              105.656854       0.222018669795379       0.252969946564343      -0.357960104825084
148                     108                     108              102.828427      -0.228861925039717      -0.245191271263143    -0.00578622128928478
149                     108                     108                     100       0.227983457492144       0.236129574063043       0.368672400566531
150                     110                     110              105.656854      -0.177702888675024      -0.261483433968283      -0.493173071305131
151                     110                     110              102.828427       0.215281393911279       0.244021493295321     0.00645417464017297
152                     110                     110                     100      -0.221492156429008      -0.232690720224673       0.474460931604456
153                     112                     108              105.656854       0.174445499304495       0.257477135937697      -0.393400135819135
154                     112                     108              102.828427      -0.197478941336479      -0.269852889780697      0.0076830373705754
155                     112                     108                     100       0.200930624181289       0.267495996964303       0.378441159984521
156                     114                     110              105.656854      -0.178388544398166      -0.185408348944418      -0.385483880256066
157                     114                     110              102.828427       0.208453296181165       0.246605060806369      -0.026149925883415
158                     114                     110                     100      -0.213055593765263      -0.249306769505371       0.469433223655367
159                     116                     108              105.656854        0.22022993795218       0.251255124718105       -0.42532087629714
160                     116                     108              102.828427      -0.225936410956353      -0.282207607836078      0.0186928928116553
161                     116                     108                     100       0.220029695355104       0.286168993348503       0.389203377795099
162                     118                     110              105.656854      -0.284724376370109      -0.198147067528506      -0.370154975595502
163                     118                     110              102.828427       0.266412044211044       0.258043048874383     -0.0259044498478642
164                     118                     110                     100      -0.249269348911806      -0.260279950665861       0.452137635359504
165                     120                     108              105.656854       0.299217978260203       0.291141284263276      -0.428039859188392
166                     120                     108              102.828427      -0.290046038238744      -0.304323961701758     0.00784156830642154
167                     120                     108                     100       0.273777174823225       0.300984588299201       0.413058677500512
168                     122                     110              105.656854      -0.355722492333151      -0.291753097874998      -0.434621887051968
169                     122                     110              102.828427         0.3334407622303       0.277987325579824     0.00533761743843519
170                     122                     110                     100       -0.31491337686752      -0.266073064315971        0.41850853316758
171                     124                     108              105.656854       0.374716740960587       0.320817515239688      -0.431141043994247
172                     124                     108              102.828427      -0.367920489097829      -0.316416377911727    -0.00504697795946831
173                     124                     108                     100       0.368796811149436       0.305530276302273       0.440580605145973
174                     126                     110              105.656854      -0.436727447512116      -0.274861302932301      -0.434890330187117
175                     126                     110              102.828427       0.380056709088935       0.268147515221532      0.0112822869643337
176                     126                     110                     100      -0.446695251167442      -0.255314154831052       0.413930662508572
177                     128                     108              105.656854       0.687958577215628       0.293726493520526      -0.326483571934629
178                     128                     108              102.828427       -0.24648822085274       -0.29531537114471     -0.0047879843030353
179                     128                     108                     100       0.691588227035759        0.28633478830387       0.334139577376096
180                     130                     110              105.656854       -1.17931548151225      -0.227933189223216       -0.83895430905057
181                     130                     110              102.828427      -0.513024903769324         0.2310581700606     0.00524943933532927
182                     130                     110                     100        -1.1855013876688      -0.222886775035537       0.830581354791488
183                     100                     112              105.656854        1.11904508659636       0.138088012795396       -0.80636172478713
184                     100                     112              102.828427       0.582903214073086      -0.140074714009204    -0.00460220018265962
185                     100                     112                     100        1.11307133547124       0.135761004276057       0.813727438316817
186                     102                     114              105.656854      -0.640117874975117      -0.170097581333731      -0.371626117061517
187                     102                     114              102.828427       0.185772794991857       0.172804158063862     0.00901730717062005
188                     102                     114                     100      -0.626983443025747      -0.167557259779018       0.357123186961839
189                     104                     112              105.656854       0.403572913946909       0.187606806568373      -0.374046669325086
190                     104                     112              102.828427       -0.32321990456555      -0.185667612730348     -0.0125929737358908
191                     104                     112                     100       0.385324366787842        0.17753799498777       0.395601261388544
192                     106                     114              105.656854      -0.360052724965016      -0.206911379522626      -0.519214037372742
193                     106                     114              102.828427       0.323089605137681       0.207197019810866      0.0247001577807302
194                     106                     114                     100      -0.322881426257299      -0.199403653485449       0.465823922127861
195                     108                     112              105.656854       0.288224808821929       0.260892478120475      -0.300484156060271
196                     108                     112              102.828427      -0.262928878866466      -0.223651819488764      -0.024153719817141
197                     108                     112                     100       0.261461669558797       0.210960173002675       0.390248933859067
198                     110                     114              105.656854      -0.148873236309862      -0.183264763631165      -0.762846089745777
199                     110                     114              102.828427        0.22306569919873        0.22482988681135      0.0186892922868974
200                     110                     114                     100      -0.239317198934083      -0.219686457356994       0.455620873875447
201                     112                     112              105.656854      0.0897025585929551       0.230903245969547       -0.42999554269891