ITEM: TIMESTEP
0
ITEM: NUMBER OF ATOMS
422
ITEM: BOX BOUNDS ff ff ff
0.0000000000000000e+00 2.3200000000000000e+02
0.0000000000000000e+00 2.3200000000000000e+02
0.0000000000000000e+00 2.3200000000000000e+02
ITEM: ATOMS id xu yu zu fx fy fz
1        113.114797412291        115.952386034129        108.625719218452      -0.383884380367095          1.420240865486      0.0156714033681711
2        118.874587455086        116.036328856649        108.703956615015       -1.68537668877599       -1.02354490856558      0.0168556702679862
3        117.432549980325        116.018000099173        108.687058986408      -0.745998286569953        1.36042495008654     -0.0405555138676093
4        114.618630644112        116.032510548099        108.704412605163       -2.90460772501632       -2.17279429031747       0.102254533810442
5        116.653377929134        114.702027611529        108.609156761365        3.43736633332505        1.54056713115467     -0.0353746358930893
6        115.237808742559        114.711274360404        108.619835751692        2.17432555011279       0.888140095409733      0.0457087153318685
7        115.243163276717        117.193843617077        108.627675411689        1.72901382737105        1.32990606900634      -0.154384196271788
8        116.729460402006        117.255324807167        108.687724360584      0.0879353728001884       -1.45449810929815      0.0338431009753732
9        114.516049463378        113.546738783795         108.65514654262       -0.34121332116223       -1.27115576779658       0.039770463131351
10         117.50786293789        113.598710859045        108.704163455159       -2.54912395902195       -3.10246897129578      0.0189609787970927
11        114.537245519368        118.445727620488        108.681235968595       -2.01924512793491      -0.108871467845761      0.0319394916728347
12        117.455610617913        118.424251321437        108.656804507258        0.65216978751123       0.518925762783669     -0.0685054926214432
13        113.083864781292        113.518998108954        108.613407521056        1.35191069675262        1.40532354585154     -0.0131751963886493
14        113.146618230744        118.428724184905        108.681023422631      -0.574394911023144       0.167600991956198      0.0194574300870084
15         118.87895884996        113.596182917364        108.684844623792      -0.384003882433858        1.36336601147386      -0.045281729405521
16        118.818866078813        118.383062777897        108.629614307317       0.431982894864761       0.423741703809609     -0.0210016085612786
17        112.388246282115        117.155770387616        108.618304443976       0.706903149682769         1.0469219434221     -0.0679590404187728
18         112.43456508396        114.776615840284        108.662190025221       -1.01259838120084      -0.665217460596204      0.0266514702756383
19        119.541686698005        114.773492613585        108.651919501312        1.50781064832053        1.10089143615867     -0.0259611293588111
20        119.527783313141        117.185062581073        108.640449338113      -0.103899084882158       -1.14115566434043      0.0330010197662339
21        120.941864925861        114.811164989059        108.643583903236       -1.19168507341087      -0.413002799247918     0.00383623068300389
22        120.925841988363        117.131338855688        108.629904626112        0.58857787124693       0.111899930459938     0.00708273324412188
23        111.009849997266        114.803683153598        108.646078324105       -1.57598718923621       0.197920299917079    -0.00720746141940532
24        111.029126028404        117.159155987533        108.667698015259       -2.53609826679509        -2.0552273890452     -0.0012768125572772
25        121.558367907871         115.96363852525        108.628495447132       0.868976997404372      -0.431089779343335     -0.0543030896985221
26        110.345480002065        115.939539406258        108.615643427593        1.44525316298937      0.0237226640245511      0.0626720650484246
27        121.657750325539        118.234476420641        108.705408279714      -0.600078889119619       0.398417297924321    -0.00405736600765022
28        121.570293485077        113.754812768072        108.613545198377       0.371318794781047       0.221090374471296    -0.00672375517972659
29        110.331626995299        118.146437731867        108.628666244571        1.82032478692016        1.28594090397984    -0.00227507030527165
30        110.359755247644        113.782359174113        108.652388257383       0.847182078881852        -0.5391167291566      0.0215181715036994
31        112.579192689636        112.594780667487        108.636179867393      -0.307218046582442       0.168176913854918       0.017023404961713
32        112.596331633708        119.353711454318        108.660082133109       0.114743519860043      0.0684344594652256     0.00760138092807899
33        119.415750696035        112.657700897715        108.692291163083      0.0690223628482347       0.039464369939172    -0.00188543544150493
34        119.368133745163        119.351875798409         108.65143753802       0.137344884479459     -0.0777336493229293    -0.00594470126261507
35        114.993377508931        112.600051499944        108.687944936064       0.420277416355376       0.212072090872141     0.00474882861784354
36        114.943787266016        119.390084303475        108.645216157334       0.996667361068097      -0.430403693564629      -0.035194926341537
37        116.968373894313        112.521406880031        108.607235970292      0.0704210297540852     -0.0400629837262153      0.0533247901432988
38        117.048651030207         119.44130706326        108.694374572676      -0.914115313797333      -0.366846148044639      0.0291452783862883
39                     100                     100              105.656854                       0                       0                       0
40                     100                     100              102.828427                       0                       0                       0
41                     100                     100                     100                       0                       0                       0
42                     102                     102              105.656854                       0                       0                       0
43                     102                     102              102.828427                       0                       0                       0
44                     102                     102                     100                       0                       0                       0
45                     104                     100              105.656854                       0                       0                       0
46                     104                     100              102.828427                       0                       0                       0
47                     104                     100                     100                       0                       0                       0
48                     106                     102              105.656854                       0                       0                       0
49                     106                     102              102.828427                       0                       0                       0
50                     106                     102                     100                       0                       0                       0
51                     108                     100              105.656854                       0                       0                       0
52                     108                     100              102.828427                       0                       0                       0
53                     108                     100                     100                       0                       0                       0
54                     110                     102              105.656854                       0                       0                       0
55                     110                     102              102.828427                       0                       0                       0
56                     110                     102                     100                       0                       0                       0
57                     112                     100              105.656854                       0                       0                       0
58                     112                     100              102.828427                       0                       0                       0
59                     112                     100                     100                       0                       0                       0
60                     114                     102              105.656854                       0                       0                       0
61                     114                     102              102.828427                       0                       0                       0
62                     114                     102                     100                       0                       0                       0
63                     116                     100              105.656854                       0                       0                       0
64                     116                     100              102.828427                       0                       0                       0
65                     116                     100                     100                       0                       0                       0
66                     118                     102              105.656854                       0                       0                       0
67                     118                     102              102.828427                       0                       0                       0
68                     118                     102                     100                       0                       0                       0
69                     120                     100              105.656854                       0                       0                       0
70                     120                     100              102.828427                       0                       0                       0
71                     120                     100                     100                       0                       0                       0
72                     122                     102              105.656854                       0                       0                       0
73                     122                     102              102.828427                       0                       0                       0
74                     122                     102                     100                       0                       0                       0
75                     124                     100              105.656854                       0                       0                       0
76                     124                     100              102.828427                       0                       0                       0
77                     124                     100                     100                       0                       0                       0
78                     126                     102              105.656854                       0                       0                       0
79                     126                     102              102.828427                       0                       0                       0
80                     126                     102                     100                       0                       0                       0
81                     128                     100              105.656854                       0                       0                       0
82                     128                     100              102.828427                       0                       0                       0
83                     128                     100                     100                       0                       0                       0
84                     130                     102              105.656854                       0                       0                       0
85                     130                     102              102.828427                       0                       0                       0
86                     130                     102                     100                       0                       0                       0
87                     100                     104              105.656854                       0                       0                       0
88                     100                     104              102.828427                       0                       0                       0
89                     100                     104                     100                       0                       0                       0
90                     102                     106              105.656854                       0                       0                       0
91                     102                     106              102.828427                       0                       0                       0
92                     102                     106                     100                       0                       0                       0
93                     104                     104              105.656854                       0                       0                       0
94                     104                     104              102.828427                       0                       0                       0
95                     104                     104                     100                       0                       0                       0
96                     106                     106              105.656854                       0                       0                       0
97                     106                     106              102.828427                       0                       0                       0
98                     106                     106                     100                       0                       0                       0
99                     108                     104              105.656854                       0                       0                       0
100                     108                     104              102.828427                       0                       0                       0
101                     108                     104                     100                       0                       0                       0
102                     110                     106              105.656854                       0                       0                       0
103                     110                     106              102.828427                       0                       0                       0
104                     110                     106                     100                       0                       0                       0
105                     112                     104              105.656854                       0                       0                       0
106                     112                     104              102.828427                       0                       0                       0
107                     112                     104                     100                       0                       0                       0
108                     114                     106              105.656854                       0                       0                       0
109                     114                     106              102.828427                       0                       0                       0
110                     114                     106                     100                       0                       0                       0
111                     116                     104              105.656854                       0                       0                       0
112                     116                     104              102.828427                       0                       0                       0
113                     116                     104                     100                       0                       0                       0
114                     118                     106              105.656854                       0                       0                       0
115                     118                     106              102.828427                       0                       0                       0
116                     118                     106                     100                       0                       0                       0
117                     120                     104              105.656854                       0                       0                       0
118                     120                     104              102.828427                       0                       0                       0
119                     120                     104                     100                       0                       0                       0
120                     122                     106              105.656854                       0                       0                       0
121                     122                     106              102.828427                       0                       0                       0
122                     122                     106                     100                       0                       0                       0
123                     124                     104              105.656854                       0                       0                       0
124                     124                     104              102.828427                       0                       0                       0
125                     124                     104                     100                       0                       0                       0
126                     126                     106              105.656854                       0                       0                       0
127                     126                     106              102.828427                       0                       0                       0
128                     126                     106                     100                       0                       0                       0
129                     128                     104              105.656854                       0                       0                       0
130                     128                     104              102.828427                       0                       0                       0
131                     128                     104                     100                       0                       0                       0
132                     130                     106              105.656854                       0                       0                       0
133                     130                     106              102.828427                       0                       0                       0
134                     130                     106                     100                       0                       0                       0
135                     100                     108              105.656854                       0                       0                       0
136                     100                     108              102.828427                       0                       0                       0
137                     100                     108                     100                       0                       0                       0
138                     102                     110              105.656854                       0                       0                       0
139                     102                     110              102.828427                       0                       0                       0
140                     102                     110                     100                       0                       0                       0
141                     104                     108              105.656854                       0                       0                       0
142                     104                     108              102.828427                       0                       0                       0
143                     104                     108                     100                       0                       0                       0
144                     106                     110              105.656854                       0                       0                       0
145                     106                     110              102.828427                       0                       0                       0
146                     106                     110                     100                       0                       0                       0
147                     108                     108              105.656854                       0                       0                       0
148                     108                     108              102.828427                       0                       0                       0
149                     108                     108                     100                       0                       0                       0
150                     110                     110              105.656854                       0                       0                       0
151                     110                     110              102.828427                       0                       0                       0
152                     110                     110                     100                       0                       0                       0
153                     112                     108              105.656854                       0                       0                       0
154                     112                     108              102.828427                       0                       0                       0
155                     112                     108                     100                       0                       0                       0
156                     114                     110              105.656854                       0                       0                       0
157                     114                     110              102.828427                       0                       0                       0
158                     114                     110                     100                       0                       0                       0
159                     116                     108              105.656854                       0                       0                       0
160                     116                     108              102.828427                       0                       0                       0
161                     116                     108                     100                       0                       0                       0
162                     118                     110              105.656854                       0                       0                       0
163                     118                     110              102.828427                       0                       0                       0
164                     118                     110                     100                       0                       0                       0
165                     120                     108              105.656854                       0                       0                       0
166                     120                     108              102.828427                       0                       0                       0
167                     120                     108                     100                       0                       0                       0
168                     122                     110              105.656854                       0                       0                       0
169                     122                     110              102.828427                       0                       0                       0
170                     122                     110                     100                       0                       0                       0
171                     124                     108              105.656854                       0                       0                       0
172                     124                     108              102.828427                       0                       0                       0
173                     124                     108                     100                       0                       0                       0
174                     126                     110              105.656854                       0                       0                       0
175                     126                     110              102.828427                       0                       0                       0
176                     126                     110                     100                       0                       0                       0
177                     128                     108              105.656854                       0                       0                       0
178                     128                     108              102.828427                       0                       0                       0
179                     128                     108                     100                       0                       0                       0
180                     130                     110              105.656854                       0                       0                       0
181                     130                     110              102.828427                       0                       0                       0
182                     130                     110                     100                       0                       0                       0
183                     100                     112              105.656854                       0                       0                       0
184                     100                     112              102.828427                       0                       0                       0
185                     100                     112                     100                       0                       0                       0
186                     102                     114              105.656854                       0                       0                       0
187                     102                     114              102.828427                       0                       0                       0
188                     102                     114                     100                       0                       0                       0
189                     104                     112              105.656854                       0                       0                       0
190                     104                     112              102.828427                       0                       0                       0
191                     104                     112                     100                       0                       0                       0
192                     106                     114              105.656854                       0                       0                       0
193                     106                     114              102.828427                       0                       0                       0
194                     106                     114                     100                       0                       0                       0
195                     108                     112              105.656854                       0                       0                       0
196                     108                     112              102.828427                       0                       0                       0
197                     108                     112                     100                       0                       0                       0
198                     110                     114              105.656854                       0                       0                       0
199                     110                     114              102.828427                       0                       0                       0
200                     110                     114                     100                       0                       0                       0
201                     112                     112              105.656854                       0                       0                       0