ITEM: TIMESTEP
0
ITEM: NUMBER OF ATOMS
422
ITEM: BOX BOUNDS pp pp pp
0.0000000000000000e+00 3.2000000000000000e+01
0.0000000000000000e+00 3.2000000000000000e+01
0.0000000000000000e+00 3.2000000000000000e+01
ITEM: ATOMS id xu yu zu fx fy fz
1        13.1459321938386        17.7835208156773                 8.65685     -0.0405053027478813     -0.0102679105339763       0.119183298171444
2        18.8274848400711        17.7892262416344                 8.65685      0.0404405894560197      -0.010297378384646       0.123243469545587
3         17.402344993917         17.787795112765                 8.65685     -0.0359198878894907     -0.0127369826315033       0.155204020417917
4         14.571072038949        17.7849519429358                 8.65685      0.0349731015268959     -0.0131532991950405       0.158483995763361
5        16.7010751677692        16.5497248501637                 8.65685    -0.00882580578030991    -0.00932950588812099     0.00885808480976454
6        15.2748269908674        16.5482926087119                 8.65685       0.009043175917256     -0.0096897208364073     0.00952316333770826
7        15.2723418650276        19.0230222053877                 8.65685      0.0177769865211469      0.0146877379952399      0.0277077753271708
8        16.6985900414216        19.0244544465825                 8.65685     -0.0172094101380633      0.0140122779623425       0.025908227096365
9        14.5177569207574        15.3484462411751                 8.65685      0.0109492295947545      0.0267695223753494      0.0453751763251962
10        17.4605534827313        15.3514014038861                 8.65685      -0.011187872834979      0.0262914288018231      0.0442749535797135
11        14.5128635507729         20.221345651893                 8.65685     0.00569839651420558    -0.00983361877899293      0.0179168581741774
12        17.4556601106552        20.2243008141789                 8.65685    -0.00592871607996358    -0.00975669645309522      0.0174013559622864
13        13.1273112602358        15.3624445878976                 8.65685     -0.0130839639271232      0.0192512489122423      0.0291237280945597
14        13.1224488081137        20.2045547622743                 8.65685     -0.0066821584367749    -0.00658896842568916     0.00965053629681794
15         18.850968226168        15.3681922935721                 8.65685      0.0129546109849718      0.0195714770104472      0.0297051538871837
16        18.8461057714963        20.2103024705805                 8.65685     0.00674177014613069      -0.007012259579875      0.0104768483095926
17         12.426795838139        18.9943199436399                 8.65685     -0.0116604419205105     0.00897063651993163      0.0136325086185887
18        12.4292290587396        16.5712798150634                 8.65685    -0.00589889519917522     -0.0059407588724511     0.00276815238865421
19        19.5466211966922        16.5784271122721                 8.65685     0.00629614122555014     -0.0062793578870273     0.00338852573067392
20        19.5441879750283        19.0014672429596                 8.65685      0.0122816261736529     0.00939485911302931      0.0145830569504045
21        20.9551350226241        16.6244350858224                 8.65685      -0.012293486906202     -0.0153135483169853      0.0209113664967433
22        20.9527913622507        18.9582882295758                 8.65685     -0.0226315399667212      0.0207849094870682      0.0473363616662449
23        11.0206256731611        16.6144588294926                 8.65685      0.0122158368036349     -0.0156050972114896      0.0213902576383759
24        11.0182820131454        18.9483119722736                 8.65685      0.0231622329390169      0.0216242388237927      0.0503587514244786
25        21.5867264607395        17.7919970781177                 8.65685     -0.0115937429150547    -0.00582484939985113      0.0664969139502791
26        10.3866905744716        17.7807499786644                 8.65685      0.0109621416503954    -0.00620665462336721      0.0673713260158169
27         21.609196045824        19.9859221409264                 8.65685    -0.00146904531579907    0.000272562793842863    -0.00200152190438846
28        21.6136022867001        15.5981215696947                 8.65685    -0.00223562244894118     0.00761492179015954     0.00354493711715865
29        10.3598147507275        19.9746254872963                 8.65685     0.00137913254670146    0.000498754733154159     -0.0018189389813382
30        10.3642209902605        15.5868249167297                 8.65685     0.00217398725930146     0.00790214741655734     0.00404098742626956
31        12.5998668222426        14.4154548000933                 8.65685    -0.00275623567908482     0.00071750470269534    -0.00512968111738147
32        12.5931035005993        21.1504833212092                 8.65685    -0.00177581836746958   -0.000926815325330669    -0.00707215718225164
33        19.3803135329519        14.4222637346313                 8.65685     0.00282495699711633    0.000760915592598422    -0.00492429180133491
34        19.3735502071424         21.157292260389                 8.65685     0.00188397136148019    -0.00101247143372109    -0.00677615555784285
35        14.9622865728669        14.3689605638796                 8.65685     0.00413715310530531     0.00151355721412069     0.00155510713574363
36         14.955425108682        21.2017221461408                 8.65685     0.00284422842794782    -0.00232621977570371    -0.00210901667383562
37        17.0179919240215        14.3710249097393                 8.65685    -0.00410648063010933     0.00147620050011543     0.00120386310396368
38         17.011130457531        21.2037864905846                 8.65685    -0.00281906417280459    -0.00220866852857623    -0.00249202199878465
39                       0                       0                5.656854                       0                       0                       0
40                       0                       0                2.828427                       0                       0                       0
41                       0                       0                       0                       0                       0                       0
42                       2                       2                5.656854                       0                       0                       0
43                       2                       2                2.828427                       0                       0                       0
44                       2                       2                       0                       0                       0                       0
45                       4                       0                5.656854    4.13478520734342e-10   -6.94352562963261e-10    1.77974337123639e-10
46                       4                       0                2.828427     3.9730010996826e-10   -7.51229839793712e-10     3.6410385987684e-10
47                       4                       0                       0                       0                       0                       0
48                       6                       2                5.656854    1.25757636014291e-09    8.88150490694256e-10    7.08129753931534e-10
49                       6                       2                2.828427                       0                       0                       0
50                       6                       2                       0                       0                       0                       0
51                       8                       0                5.656854    5.57991250353617e-09   -1.53027409996859e-08    3.92726540473018e-09
52                       8                       0                2.828427    7.09865736926846e-09   -1.94931708517242e-08    9.70342765238988e-09
53                       8                       0                       0    3.62370283884652e-11    -8.5596643715773e-11    6.82977248746419e-11
54                      10                       2                5.656854    7.51359102623106e-09    1.06069124984818e-08    7.54171382224246e-09
55                      10                       2                2.828427    2.12084793981589e-10    5.31510415183983e-10    4.39590124040027e-10
56                      10                       2                       0                       0                       0                       0
57                      12                       0                5.656854    1.03803369226153e-08   -6.87728213739718e-08    1.80546762669574e-08
58                      12                       0                2.828427      1.252402134963e-08   -8.09045088706201e-08    4.10086041651332e-08
59                      12                       0                       0    1.53170695863781e-10   -1.11556053709978e-09    8.51549771964097e-10
60                      14                       2                5.656854    5.12476786908714e-09    2.61230883017166e-08    1.87756555913923e-08
61                      14                       2                2.828427     1.6739721024161e-10    1.22743973986524e-09    1.26229299385707e-09
62                      14                       2                       0                       0                       0                       0
63                      16                       0                5.656854    1.54023752244954e-11    -1.0312123057157e-07    2.72312780304309e-08
64                      16                       0                2.828427    4.68865083612326e-12   -1.17668588510724e-07    6.01300734116496e-08
65                      16                       0                       0   -3.60544778319338e-13   -1.74522966623347e-09    1.33722949119166e-09
66                      18                       2                5.656854   -5.20963909027624e-09     2.5824809407545e-08    1.87081285576923e-08
67                      18                       2                2.828427   -1.59612287630274e-10    1.02351569075017e-09    1.33956008221886e-09
68                      18                       2                       0                       0                       0                       0
69                      20                       0                5.656854   -1.04256020928947e-08   -6.87451379876577e-08    1.80499824257816e-08
70                      20                       0                2.828427   -1.25738858578872e-08   -8.08442435563299e-08    4.09857241135154e-08
71                      20                       0                       0   -1.54921922972334e-10   -1.11586809497049e-09    8.51999712321441e-10
72                      22                       2                5.656854   -7.48011865405976e-09    1.02952904607974e-08    7.45517605654363e-09
73                      22                       2                2.828427   -2.11200002337811e-10    5.21442004963767e-10    4.33992871297736e-10
74                      22                       2                       0                       0                       0                       0
75                      24                       0                5.656854   -5.56863791485248e-09   -1.52115540816876e-08    3.90471046928608e-09
76                      24                       0                2.828427   -7.09055915548764e-09   -1.93838754732172e-08    9.65179922258147e-09
77                      24                       0                       0   -5.54407412740292e-11   -1.81556711976745e-10    1.37424508198023e-10
78                      26                       2                5.656854   -1.24025626016866e-09    8.44735733104728e-10     6.9535973287816e-10
79                      26                       2                2.828427                       0                       0                       0
80                      26                       2                       0                       0                       0                       0
81                      28                       0                5.656854   -4.10175980090046e-10   -6.86052844924664e-10    1.75940325135558e-10
82                      28                       0                2.828427   -3.96632305964307e-10   -7.45629413677349e-10    3.61729270871286e-10
83                      28                       0                       0                       0                       0                       0
84                      30                       2                5.656854                       0                       0                       0
85                      30                       2                2.828427                       0                       0                       0
86                      30                       2                       0                       0                       0                       0
87                       0                       4                5.656854                       0                       0                       0
88                       0                       4                2.828427                       0                       0                       0
89                       0                       4                       0                       0                       0                       0
90                       2                       6                5.656854     1.3416367880544e-08    1.47034500586734e-08    4.53497492272938e-09
91                       2                       6                2.828427    3.96033786920141e-10    4.29354314809549e-10    2.65716863778489e-10
92                       2                       6                       0                       0                       0                       0
93                       4                       4                5.656854    1.02488754533837e-09    1.63294079950982e-09    4.26460415990269e-10
94                       4                       4                2.828427    1.02427177424643e-09    1.66148462069313e-09    8.58618830859606e-10
95                       4                       4                       0                       0                       0                       0
96                       6                       6                5.656854    3.36911371970421e-07    5.82188665282515e-07    1.82586513484635e-07
97                       6                       6                2.828427    1.13993848365112e-08    1.95385838202906e-08    1.18980886004426e-08
98                       6                       6                       0    4.62699734837355e-09    8.13687803045101e-09    7.42079297696034e-09
99                       8                       4                5.656854    1.03804421547206e-08    2.76167173019796e-08    7.34464937565686e-09
100                       8                       4                2.828427    1.27364875166392e-08    3.36366087656498e-08    1.73791401522881e-08
101                       8                       4                       0    9.23345185044502e-11    2.95178388407678e-10    2.31890277494697e-10
102                      10                       6                5.656854    1.78862436408189e-06    6.06315616695321e-06    1.97505102447869e-06
103                      10                       6                2.828427    5.06488863935422e-08    1.69645780826787e-07    1.06419127812714e-07
104                      10                       6                       0     2.0084922339854e-08    6.74123606213315e-08    6.24184817805859e-08
105                      12                       4                5.656854    1.93986946357824e-08    1.26729614210275e-07     3.4409209319786e-08
106                      12                       4                2.828427    2.21393415299936e-08    1.40789026179178e-07    7.40998003793377e-08
107                      12                       4                       0    2.56611062628001e-10     1.8199850427211e-09    1.44341346914027e-09
108                      14                       6                5.656854    1.06834022566158e-06    1.60700634759621e-05    5.35300895611549e-06
109                      14                       6                2.828427    2.98114018952608e-08     4.1479298569249e-07    2.65597457032424e-07
110                      14                       6                       0    1.13109583752136e-08    1.52341899003474e-07    1.43686302163042e-07
111                      16                       4                5.656854   -1.86622562511389e-10    1.89059235696428e-07    5.16946688393011e-08
112                      16                       4                2.828427   -2.04074347535295e-10    2.06978214341444e-07    1.09651330384591e-07
113                      16                       4                       0   -2.77413449273359e-12    2.83227813497951e-09    2.25462014499689e-09
114                      18                       6                5.656854   -1.09616260491439e-06    1.59749687806838e-05    5.31964867378659e-06
115                      18                       6                2.828427   -3.05375359609573e-08    4.12623587776802e-07    2.64130813525942e-07
116                      18                       6                       0   -1.15860706969166e-08    1.51659261829964e-07    1.43002235417307e-07
117                      20                       4                5.656854   -1.94237257237342e-08    1.25298323854037e-07    3.40066794791292e-08
118                      20                       4                2.828427    -2.2181924633386e-08    1.39338043052028e-07    7.33072873944161e-08
119                      20                       4                       0   -2.57706698601795e-10    1.80344094435597e-09    1.42966730373687e-09
120                      22                       6                5.656854   -1.76957542846412e-06     5.9552804915543e-06    1.93853660954689e-06
121                      22                       6                2.828427   -5.02036764446926e-08    1.66957344534229e-07    1.04662542209891e-07
122                      22                       6                       0   -1.99515130521727e-08    6.64887174779257e-08    6.15231858045077e-08
123                      24                       4                5.656854   -1.02077850767163e-08    2.70244234066936e-08    7.18270255735816e-09
124                      24                       4                2.828427   -1.25448089118114e-08    3.29707198262196e-08    1.70247418018782e-08
125                      24                       4                       0   -9.11990419529309e-11    2.89920324624849e-10    2.27582281497247e-10
126                      26                       6                5.656854   -3.28811652923684e-07    5.66215664709231e-07    1.77425613121581e-07
127                      26                       6                2.828427    -1.1152360110192e-08     1.9050361610684e-08    1.15910601803485e-08
128                      26                       6                       0    -4.5402135114728e-09    7.95764982392666e-09    7.25079809345078e-09
129                      28                       4                5.656854   -9.97564214065632e-10    1.58534891095737e-09    4.13717659840676e-10
130                      28                       4                2.828427   -9.98764543798366e-10    1.61604077042201e-09    8.34450691056274e-10
131                      28                       4                       0                       0                       0                       0
132                      30                       6                5.656854   -1.29923153064766e-08    1.42138585205837e-08    4.37980190325954e-09
133                      30                       6                2.828427   -3.84449331291351e-10    4.16131024217131e-10    2.57260460855174e-10
134                      30                       6                       0                       0                       0                       0
135                       0                       8                5.656854    7.63805569512202e-11     3.1847296397147e-09    1.20852819213185e-09
136                       0                       8                2.828427    6.25408828647207e-11    2.77301410109064e-09    2.12875435193931e-09
137                       0                       8                       0                       0                       0                       0
138                       2                      10                5.656854    8.09369348175945e-07    5.61365278368301e-07    2.79413063481845e-07
139                       2                      10                2.828427    2.62404638345467e-08    1.82180685777139e-08    1.74316035232348e-08
140                       2                      10                       0    1.02414213097052e-08    7.12132583618487e-09    1.02417972531846e-08
141                       4                       8                5.656854    1.51664531263918e-07    1.68617551383654e-07    6.48173064075867e-08
142                       4                       8                2.828427    1.54000070616135e-07    1.70167133762996e-07    1.26493888678934e-07
143                       4                       8                       0     2.0997941431555e-09    2.31897953766794e-09    2.56162892686046e-09
144                       6                      10                5.656854    4.40563687672058e-05    5.08732617752727e-05    2.62825505387648e-05
145                       6                      10                2.828427     8.6313585250737e-07    9.79327578335017e-07    9.68684717486632e-07
146                       6                      10                       0     2.4810875546934e-07    2.76879432556827e-07     3.9988301797795e-07
147                       8                       8                5.656854    2.42399725708426e-06    4.82835946362943e-06    1.93256011100067e-06
148                       8                       8                2.828427    1.78853182537617e-06    3.49191039105093e-06    2.68571457275144e-06
149                       8                       8                       0    1.85616547554622e-08    3.54797350150936e-08    3.99981491800352e-08
150                      10                      10                5.656854     0.00038052641945537    0.000938750352170453    0.000523303599094655
151                      10                      10                2.828427    4.86522433416716e-06    1.16541202765804e-05    1.22418686082841e-05
152                      10                      10                       0     9.7992078906879e-07    2.25567899302062e-06    3.41027955354372e-06
153                      12                       8                5.656854    5.66621859380112e-06    3.01483567489496e-05    1.27362136846614e-05
154                      12                       8                2.828427    3.38855354883446e-06     1.7257881518496e-05    1.38809101747199e-05
155                      12                       8                       0    2.91417353882221e-08    1.41493451776276e-07    1.65418672849354e-07
156                      14                      10                5.656854    0.000178670671035422     0.00283654479177366     0.00168059428330371
157                      14                      10                2.828427    2.33441177040301e-06    2.93680117189459e-05    3.24748236697936e-05
158                      14                      10                       0    4.83007221698489e-07    4.96834163162184e-06    7.82381904867733e-06
159                      16                       8                5.656854   -4.93090218724232e-08    4.50845033631323e-05    1.93451894622749e-05
160                      16                       8                2.828427   -2.79974151867995e-08    2.50820197108665e-05     2.0480903448593e-05
161                      16                       8                       0   -2.28257393181694e-10    1.99960488158159e-07    2.37051246216692e-07
162                      18                      10                5.656854    -0.00018513557320152     0.00282098890894657     0.00167021155344991
163                      18                      10                2.828427   -2.40149596785954e-06    2.92370976231357e-05    3.23104728620647e-05
164                      18                      10                       0   -4.94443206402117e-07    4.95016139410126e-06    7.79117687841002e-06
165                      20                       8                5.656854   -5.66880984250592e-06    2.97684573756735e-05    1.25657754175711e-05
166                      20                       8                2.828427   -3.39473686785174e-06    1.70751068356411e-05    1.37240446114712e-05
167                      20                       8                       0    -2.9229528755058e-08    1.40249062570393e-07    1.63857604725053e-07
168                      22                      10                5.656854   -0.000375643141846992    0.000920190780996837    0.000512172318843348
169                      22                      10                2.828427   -4.82103325425146e-06    1.14686544930678e-05     1.2031124971795e-05
170                      22                      10                       0   -9.73692511727107e-07    2.22646841098969e-06    3.36247978135198e-06
171                      24                       8                5.656854   -2.37552916792949e-06    4.70892471104802e-06    1.88268437283511e-06
172                      24                       8                2.828427   -1.75840535305273e-06    3.41700944271386e-06    2.62542193054088e-06
173                      24                       8                       0   -1.83072414842978e-08    3.48344562644779e-08    3.92337187696002e-08
174                      26                      10                5.656854   -4.28073884595815e-05    4.92788469462838e-05    2.54181286907967e-05
175                      26                      10                2.828427   -8.42535491774994e-07     9.5316899739073e-07    9.41468458854209e-07
176                      26                      10                       0   -2.43308498176425e-07    2.70728634525948e-07    3.90488295616081e-07
177                      28                       8                5.656854   -1.47043260354694e-07     1.6310742577822e-07    6.26264951613807e-08
178                      28                       8                2.828427   -1.49792066239074e-07    1.65143967674174e-07    1.22623923015964e-07
179                      28                       8                       0   -2.04998315009128e-09    2.25906375065958e-09    2.49264379323992e-09
180                      30                      10                5.656854   -7.80937381159033e-07    5.41394731873066e-07    2.69075043692821e-07
181                      30                      10                2.828427   -2.54087917487519e-08    1.76281582681138e-08    1.68443941854138e-08
182                      30                      10                       0   -9.96199301633997e-09     6.9190282960013e-09     9.9355795126596e-09
183                       0                      12                5.656854    1.80636198673176e-09    3.93212781970117e-08    2.71519786441998e-08
184                       0                      12                2.828427    1.90584035630001e-09    4.56171172441283e-08    6.06068311042851e-08
185                       0                      12                       0    2.29588080987285e-11    6.16109308736358e-10    1.25281846858624e-09
186                       2                      14                5.656854    1.09245754755137e-05    3.21805833998265e-06    3.78764589287123e-06
187                       2                      14                2.828427     2.7628362791242e-07    8.42663133057487e-08    1.85083159788645e-07
188                       2                      14                       0    1.00534660154298e-07    3.14148273000881e-08     9.8422249917848e-08
189                       4                      12                5.656854    7.35913245742435e-06    4.45594092751035e-06    3.26754872273679e-06
190                       4                      12                2.828427     4.7648053918111e-06    2.91456674953127e-06    4.03706015978961e-06
191                       4                      12                       0    4.38485756063488e-08     2.7024152551078e-08    5.40180324265888e-08
192                       6                      14                5.656854     0.00151398606778203     0.00071459458925322      0.0009548656186658
193                       6                      14                2.828427    1.57514976011004e-05    7.76183973931038e-06    1.85687361841711e-05
194                       6                      14                       0    2.68027088885926e-06    1.35908482685345e-06    4.48500120282322e-06
195                       8                      12                5.656854    0.000280861130998085    0.000348715828408637    0.000273209287259728
196                       8                      12                2.828427    8.74382679565777e-05    0.000103380274026941    0.000151445553944906
197                       8                      12                       0    4.49628155077436e-07    5.11611806662902e-07    1.06831697192911e-06
198                      10                      14                5.656854      0.0105063123476534     0.00489038284355153      0.0029318550082638
199                      10                      14                2.828427    9.77302023156734e-05     0.00012049899329878    0.000317463351275828
200                      10                      14                       0     1.0444466300744e-05    1.20013199536495e-05    4.26914569586093e-05
201                      12                      12                5.656854    0.000754034914140364     0.00270154086588673     0.00244060353146558