ITEM: TIMESTEP
0
ITEM: NUMBER OF ATOMS
422
ITEM: BOX BOUNDS ff ff ff
0.0000000000000000e+00 2.3200000000000000e+02
0.0000000000000000e+00 2.3200000000000000e+02
0.0000000000000000e+00 2.3200000000000000e+02
ITEM: ATOMS id xu yu zu fx fy fz
1        113.132056383484        115.969645005323        108.642978189646    0.000176381068522683    0.000433306879904322      0.0567631465547492
2        118.786893826253        115.948635227816        108.616262986182     0.00178292705579035     0.00119001864594692      0.0711918906405994
3        117.430508938984        116.015959057832        108.685017945067    -0.00195181340653761   -9.33882612558234e-05     -0.0276560302384437
4        114.577240666948        115.991120570934        108.663022627998   -0.000812961997041908     0.00018048842120947      -0.084422533938809
5        116.719815452454        114.768465134848        108.675594284684     0.00156122240794101   -0.000526038102680726     -0.0197472343401845
6        115.234348974786        114.707814592631        108.616375983919    0.000948036043329962     0.00141473239522083       0.103485378393473
7        115.245929430966        117.196609771326        108.630441565938   -0.000666342311121751     0.00111028362921052      0.0784239246372346
8        116.726949780092        117.252814185253        108.685213738671      0.0007223716568226    -0.00242074611335059     -0.0669017865697547
9        114.549830146597        113.580519467014        108.688927225839    -0.00193449548142013    -0.00219094360218785      -0.066109959521308
10        117.481554310153        113.572402231308        108.677854827422   -0.000530356928137306    1.81280027418807e-05     -0.0400588518178679
11        114.499361013055        118.407843114176        108.643351462282   -0.000235136230446564   -0.000366047743126689     -0.0532466570563665
12        117.410754907045        118.379395610569         108.61194879639     0.00076299980358837     0.00245988230749335      0.0544018028321428
13        113.165370984478         113.60050431214        108.694913724242    0.000143572158018276    0.000368966951628208     0.00553990825036667
14        113.096902978065        118.379008932226        108.631308169952    0.000298933934990128     0.00027932738724045      0.0470509611608182
15        118.844010400357        113.561234467762        108.649896174189   -0.000101519172192421     0.00113437257504517      0.0690348708228747
16        118.813034878934        118.377231578018        108.623783107437    3.21662083314662e-05   -0.000478557104463371    -0.00341878297064854
17         112.43020788056        117.197731986061        108.660266042421   -0.000228864854716609   -0.000657412999050701     -0.0765755516350238
18        112.458181281847        114.800232038171        108.685806223108   -0.000531504699984297    -0.00259176838391182      0.0568057126574801
19        119.549643129601        114.781449045181        108.659875932908     -0.0038245142498724    -0.00480924561009007      -0.209296973323208
20        119.518644611718        117.175923879649         108.63131063669    -0.00813872307584386     0.00222543588549403        0.18084152074211
21        120.921756965979        114.791057029177        108.623475943355    5.02089597345825e-05      0.0101578422925993       0.436482613539793
22        120.987496566331        117.192993433656        108.691559204081    -0.00420561382901949    -0.00699209014868065      -0.655588716626318
23        111.046370456381        114.840203612713         108.68259878322     0.00478907476648823     0.00598882974208609      -0.239065774038103
24        111.012099883716        117.142129842845        108.650671870571   -3.11571025791973e-05     0.00145732054154494        0.11599358472656
25        121.568799951031        115.974070568409        108.638927490292     0.00717494273338114    -0.00560160476468936      0.0760228855127052
26        110.404996279395        115.999055683588        108.675159704923    -0.00233671856758049    -0.00141919310628642      0.0450188550218966
27        121.586254585514        118.162980680616         108.63391253969     0.00673856872036578      0.0112743654562766       0.259698682090633
28        121.635280147048        113.819799430043        108.678531860348     0.00216954708931281    -0.00716142617529286      -0.154454093191326
29        110.349002917659        118.163813654228        108.646042166932   -0.000146105501763222   -0.000270362707914745     -0.0387374875193222
30        110.327704888089        113.750308814559        108.620337897829    -0.00234331088187203    -0.00321374487549768      0.0833059253236974
31        112.628566730996        112.644154708847        108.685553908754   -2.47896326214762e-05   -3.04638353650028e-05      0.0045344117253102
32        112.587753457642        119.345133278252        108.651503957043    -0.00019355212470802    0.000139806884858012     -0.0115676505015598
33        119.425686257991         112.66763645967        108.702226725039    0.000313037239666343   -0.000902564279418136      -0.018891753116855
34        119.367130456452        119.350872509699         108.65043424931    8.94841785629807e-05    7.95081907396859e-05    -0.00476509476087043
35        114.977939430415        112.584613421427        108.672506857548    0.000680986366066763    1.85824678995326e-05      0.0166275316423801
36        114.907425341559        119.353722379018        108.608854232877    0.000229413953920733    0.000372260971220257      0.0129207357382484
37        117.005627092479        112.558660078197        108.644489168457   -6.19247039188833e-05    -0.00034757309068138      0.0114435367741368
38         116.96217192078        119.354827953834        108.607895463249   -0.000364469593456547   -0.000230288724415769     -0.0150829476212417
39                     100                     100              105.656854                       0                       0                       0
40                     100                     100              102.828427                       0                       0                       0
41                     100                     100                     100                       0                       0                       0
42                     102                     102              105.656854                       0                       0                       0
43                     102                     102              102.828427                       0                       0                       0
44                     102                     102                     100                       0                       0                       0
45                     104                     100              105.656854                       0                       0                       0
46                     104                     100              102.828427                       0                       0                       0
47                     104                     100                     100                       0                       0                       0
48                     106                     102              105.656854                       0                       0                       0
49                     106                     102              102.828427                       0                       0                       0
50                     106                     102                     100                       0                       0                       0
51                     108                     100              105.656854                       0                       0                       0
52                     108                     100              102.828427                       0                       0                       0
53                     108                     100                     100                       0                       0                       0
54                     110                     102              105.656854                       0                       0                       0
55                     110                     102              102.828427                       0                       0                       0
56                     110                     102                     100                       0                       0                       0
57                     112                     100              105.656854                       0                       0                       0
58                     112                     100              102.828427                       0                       0                       0
59                     112                     100                     100                       0                       0                       0
60                     114                     102              105.656854                       0                       0                       0
61                     114                     102              102.828427                       0                       0                       0
62                     114                     102                     100                       0                       0                       0
63                     116                     100              105.656854                       0                       0                       0
64                     116                     100              102.828427                       0                       0                       0
65                     116                     100                     100                       0                       0                       0
66                     118                     102              105.656854                       0                       0                       0
67                     118                     102              102.828427                       0                       0                       0
68                     118                     102                     100                       0                       0                       0
69                     120                     100              105.656854                       0                       0                       0
70                     120                     100              102.828427                       0                       0                       0
71                     120                     100                     100                       0                       0                       0
72                     122                     102              105.656854                       0                       0                       0
73                     122                     102              102.828427                       0                       0                       0
74                     122                     102                     100                       0                       0                       0
75                     124                     100              105.656854                       0                       0                       0
76                     124                     100              102.828427                       0                       0                       0
77                     124                     100                     100                       0                       0                       0
78                     126                     102              105.656854                       0                       0                       0
79                     126                     102              102.828427                       0                       0                       0
80                     126                     102                     100                       0                       0                       0
81                     128                     100              105.656854                       0                       0                       0
82                     128                     100              102.828427                       0                       0                       0
83                     128                     100                     100                       0                       0                       0
84                     130                     102              105.656854                       0                       0                       0
85                     130                     102              102.828427                       0                       0                       0
86                     130                     102                     100                       0                       0                       0
87                     100                     104              105.656854                       0                       0                       0
88                     100                     104              102.828427                       0                       0                       0
89                     100                     104                     100                       0                       0                       0
90                     102                     106              105.656854                       0                       0                       0
91                     102                     106              102.828427                       0                       0                       0
92                     102                     106                     100                       0                       0                       0
93                     104                     104              105.656854                       0                       0                       0
94                     104                     104              102.828427                       0                       0                       0
95                     104                     104                     100                       0                       0                       0
96                     106                     106              105.656854                       0                       0                       0
97                     106                     106              102.828427                       0                       0                       0
98                     106                     106                     100                       0                       0                       0
99                     108                     104              105.656854                       0                       0                       0
100                     108                     104              102.828427                       0                       0                       0
101                     108                     104                     100                       0                       0                       0
102                     110                     106              105.656854                       0                       0                       0
103                     110                     106              102.828427                       0                       0                       0
104                     110                     106                     100                       0                       0                       0
105                     112                     104              105.656854                       0                       0                       0
106                     112                     104              102.828427                       0                       0                       0
107                     112                     104                     100                       0                       0                       0
108                     114                     106              105.656854                       0                       0                       0
109                     114                     106              102.828427                       0                       0                       0
110                     114                     106                     100                       0                       0                       0
111                     116                     104              105.656854                       0                       0                       0
112                     116                     104              102.828427                       0                       0                       0
113                     116                     104                     100                       0                       0                       0
114                     118                     106              105.656854                       0                       0                       0
115                     118                     106              102.828427                       0                       0                       0
116                     118                     106                     100                       0                       0                       0
117                     120                     104              105.656854                       0                       0                       0
118                     120                     104              102.828427                       0                       0                       0
119                     120                     104                     100                       0                       0                       0
120                     122                     106              105.656854                       0                       0                       0
121                     122                     106              102.828427                       0                       0                       0
122                     122                     106                     100                       0                       0                       0
123                     124                     104              105.656854                       0                       0                       0
124                     124                     104              102.828427                       0                       0                       0
125                     124                     104                     100                       0                       0                       0
126                     126                     106              105.656854                       0                       0                       0
127                     126                     106              102.828427                       0                       0                       0
128                     126                     106                     100                       0                       0                       0
129                     128                     104              105.656854                       0                       0                       0
130                     128                     104              102.828427                       0                       0                       0
131                     128                     104                     100                       0                       0                       0
132                     130                     106              105.656854                       0                       0                       0
133                     130                     106              102.828427                       0                       0                       0
134                     130                     106                     100                       0                       0                       0
135                     100                     108              105.656854                       0                       0                       0
136                     100                     108              102.828427                       0                       0                       0
137                     100                     108                     100                       0                       0                       0
138                     102                     110              105.656854                       0                       0                       0
139                     102                     110              102.828427                       0                       0                       0
140                     102                     110                     100                       0                       0                       0
141                     104                     108              105.656854                       0                       0                       0
142                     104                     108              102.828427                       0                       0                       0
143                     104                     108                     100                       0                       0                       0
144                     106                     110              105.656854                       0                       0                       0
145                     106                     110              102.828427                       0                       0                       0
146                     106                     110                     100                       0                       0                       0
147                     108                     108              105.656854                       0                       0                       0
148                     108                     108              102.828427                       0                       0                       0
149                     108                     108                     100                       0                       0                       0
150                     110                     110              105.656854                       0                       0                       0
151                     110                     110              102.828427                       0                       0                       0
152                     110                     110                     100                       0                       0                       0
153                     112                     108              105.656854                       0                       0                       0
154                     112                     108              102.828427                       0                       0                       0
155                     112                     108                     100                       0                       0                       0
156                     114                     110              105.656854                       0                       0                       0
157                     114                     110              102.828427                       0                       0                       0
158                     114                     110                     100                       0                       0                       0
159                     116                     108              105.656854                       0                       0                       0
160                     116                     108              102.828427                       0                       0                       0
161                     116                     108                     100                       0                       0                       0
162                     118                     110              105.656854                       0                       0                       0
163                     118                     110              102.828427                       0                       0                       0
164                     118                     110                     100                       0                       0                       0
165                     120                     108              105.656854                       0                       0                       0
166                     120                     108              102.828427                       0                       0                       0
167                     120                     108                     100                       0                       0                       0
168                     122                     110              105.656854                       0                       0                       0
169                     122                     110              102.828427                       0                       0                       0
170                     122                     110                     100                       0                       0                       0
171                     124                     108              105.656854                       0                       0                       0
172                     124                     108              102.828427                       0                       0                       0
173                     124                     108                     100                       0                       0                       0
174                     126                     110              105.656854                       0                       0                       0
175                     126                     110              102.828427                       0                       0                       0
176                     126                     110                     100                       0                       0                       0
177                     128                     108              105.656854                       0                       0                       0
178                     128                     108              102.828427                       0                       0                       0
179                     128                     108                     100                       0                       0                       0
180                     130                     110              105.656854                       0                       0                       0
181                     130                     110              102.828427                       0                       0                       0
182                     130                     110                     100                       0                       0                       0
183                     100                     112              105.656854                       0                       0                       0
184                     100                     112              102.828427                       0                       0                       0
185                     100                     112                     100                       0                       0                       0
186                     102                     114              105.656854                       0                       0                       0
187                     102                     114              102.828427                       0                       0                       0
188                     102                     114                     100                       0                       0                       0
189                     104                     112              105.656854                       0                       0                       0
190                     104                     112              102.828427                       0                       0                       0
191                     104                     112                     100                       0                       0                       0
192                     106                     114              105.656854                       0                       0                       0
193                     106                     114              102.828427                       0                       0                       0
194                     106                     114                     100                       0                       0                       0
195                     108                     112              105.656854                       0                       0                       0
196                     108                     112              102.828427                       0                       0                       0
197                     108                     112                     100                       0                       0                       0
198                     110                     114              105.656854                       0                       0                       0
199                     110                     114              102.828427                       0                       0                       0
200                     110                     114                     100                       0                       0                       0
201                     112                     112              105.656854                       0                       0                       0