ITEM: TIMESTEP
0
ITEM: NUMBER OF ATOMS
422
ITEM: BOX BOUNDS ff ff ff
0.0000000000000000e+00 2.3200000000000000e+02
0.0000000000000000e+00 2.3200000000000000e+02
0.0000000000000000e+00 2.3200000000000000e+02
ITEM: ATOMS id xu yu zu fx fy fz
1        113.150024536533        115.987613158372        108.660946342695      -0.640555514409641       -2.40112168983831      0.0267897853262958
2        118.806815725805        115.968557127368        108.636184885734        1.68215238102818     -0.0468005800597449      0.0599174330515153
3        117.358249064322         115.94369918317        108.612758070405       0.530130079432046      0.0847029219046698     0.00566302860481028
4        114.524305943869        115.938185847856         108.61008790492        1.10250575995909          2.189437073349     -0.0147786041144741
5        116.703414839858        114.752064522252        108.659193672089      -0.831686619041028      -0.205614651804946    -0.00462313383059267
6        115.264634861867        114.738100479711           108.646661871       -1.74779814528367      -0.149783655693953    -0.00198400034467894
7        115.274573752055        117.225254092415        108.659085887027     0.00312725043855657      -0.450645809821592     -0.0376112480955582
8        116.663029666634        117.188894071795        108.621293625213    -0.00385301658995582       0.199903232239861       0.014408808220198
9         114.48541189305        113.516101213468        108.624508972293       0.109667570019599       -1.01518671689616      0.0103721503384961
10        117.433990456645          113.5248383778        108.630290973914        1.08775031895045        0.57816097301193      0.0182711693459145
11        114.548742245202        118.457224346322        108.692732694429      -0.667586712633521       0.622485903052922     0.00448256406785312
12         117.42469429154        118.393334995063        108.625888180885       0.673242534004543       0.678526944040273      0.0210173726811203
13        113.120128568369        113.555261896031        108.649671308134        1.28169702897202       0.555874684792033     -0.0359172480153965
14        113.166893878626        118.448999832787        108.701299070512       -1.22522615412623       0.114654298804278     -0.0250647964357296
15        118.870758121193        113.587982188597        108.676643895025       0.137155462635538        -1.2469751504849    -0.00488086186972411
16        118.815744620215        118.379941319299        108.626492848718        1.55871949666901       0.557878717531732     -0.0165888450070937
17         112.39846931284        117.165993418341        108.628527474701        2.05441860208759       -1.37709165111915       -0.10495774865606
18        112.477389810974        114.819440567297        108.705014752234       -1.28915570808932      -0.166223706367478    -0.00117350419231826
19        119.565515009027        114.797320924607        108.675747812335       -1.59191745154176     0.00654871187622764     -0.0501008336054647
20        119.557773247108         117.21505251504         108.67043927208        -2.2011484288975       -1.40316678880463      -0.014993693695898
21        120.993472758965        114.862772822164        108.695191736341       -1.41731597706105       0.275463395870184      0.0809779967007391
22        120.935215102649        117.140711969975        108.639277740399      -0.618870359206638       0.522201524799386      0.0667444498370754
23        111.062342133889         114.85617529022        108.698570460728       -2.24628621601253       0.214774442331243     -0.0996259535947379
24        110.968840234541        117.098870193669        108.607412221396        3.68088719713797        1.83711839316204      -0.139152771041383
25        121.547593317892         115.95286393527        108.617720857153        1.98602671015908      -0.236690968363172      -0.167884214530293
26        110.388889039233        115.982948443426        108.659052464761      -0.472758772786485        1.39186898975165       0.262989826573049
27        121.635495017402        118.212221112504        108.683152971578     -0.0876459981727064      0.0572851829596328    -0.00011088588787108
28        121.646041794695         113.83056107769        108.689293507995       0.200168671251143       0.126615651799115     -0.0119164663486054
29        110.406330352601         118.22114108917        108.703369601874       -2.26327569966741       -1.14171665129068       0.085459002674777
30        110.322805905262        113.745409831731        108.615438915001        1.23025216391831      -0.823287293192418      0.0560923303674949
31        112.588776721457        112.604364699307        108.645763899214      -0.434648708514343       0.242803713904109      0.0179206024249237
32        112.603083422173        119.360463242783        108.666833921573       0.285705513541406       0.177227826559132      0.0131414821830893
33        119.374662854926        112.616613056605        108.651203321974       0.547465362778363       0.283599161871063      0.0153658550651356
34        119.404683315163         119.38842536841        108.687987108021      -0.167132009009783      0.0984736057840852       -0.01428675507751
35        114.929252808664        112.535926799676        108.623820235797       0.518714218429243       0.234884703392919    -0.00200774514778952
36        115.003668281755        119.449965319214        108.705097173073       0.708456765041775      -0.324493149650159     -0.0127609997741895
37        117.002201003488        112.555233989205        108.641063079466       -0.64417951245908       0.286888180906771      0.0016821059792195
38        117.002505007411        119.395161040465         108.64822854988      -0.827202082951272       -0.34857977030697   -0.000875654176339161
39                     100                     100              105.656854                       0                       0                       0
40                     100                     100              102.828427                       0                       0                       0
41                     100                     100                     100                       0                       0                       0
42                     102                     102              105.656854                       0                       0                       0
43                     102                     102              102.828427                       0                       0                       0
44                     102                     102                     100                       0                       0                       0
45                     104                     100              105.656854                       0                       0                       0
46                     104                     100              102.828427                       0                       0                       0
47                     104                     100                     100                       0                       0                       0
48                     106                     102              105.656854                       0                       0                       0
49                     106                     102              102.828427                       0                       0                       0
50                     106                     102                     100                       0                       0                       0
51                     108                     100              105.656854                       0                       0                       0
52                     108                     100              102.828427                       0                       0                       0
53                     108                     100                     100                       0                       0                       0
54                     110                     102              105.656854                       0                       0                       0
55                     110                     102              102.828427                       0                       0                       0
56                     110                     102                     100                       0                       0                       0
57                     112                     100              105.656854                       0                       0                       0
58                     112                     100              102.828427                       0                       0                       0
59                     112                     100                     100                       0                       0                       0
60                     114                     102              105.656854                       0                       0                       0
61                     114                     102              102.828427                       0                       0                       0
62                     114                     102                     100                       0                       0                       0
63                     116                     100              105.656854                       0                       0                       0
64                     116                     100              102.828427                       0                       0                       0
65                     116                     100                     100                       0                       0                       0
66                     118                     102              105.656854                       0                       0                       0
67                     118                     102              102.828427                       0                       0                       0
68                     118                     102                     100                       0                       0                       0
69                     120                     100              105.656854                       0                       0                       0
70                     120                     100              102.828427                       0                       0                       0
71                     120                     100                     100                       0                       0                       0
72                     122                     102              105.656854                       0                       0                       0
73                     122                     102              102.828427                       0                       0                       0
74                     122                     102                     100                       0                       0                       0
75                     124                     100              105.656854                       0                       0                       0
76                     124                     100              102.828427                       0                       0                       0
77                     124                     100                     100                       0                       0                       0
78                     126                     102              105.656854                       0                       0                       0
79                     126                     102              102.828427                       0                       0                       0
80                     126                     102                     100                       0                       0                       0
81                     128                     100              105.656854                       0                       0                       0
82                     128                     100              102.828427                       0                       0                       0
83                     128                     100                     100                       0                       0                       0
84                     130                     102              105.656854                       0                       0                       0
85                     130                     102              102.828427                       0                       0                       0
86                     130                     102                     100                       0                       0                       0
87                     100                     104              105.656854                       0                       0                       0
88                     100                     104              102.828427                       0                       0                       0
89                     100                     104                     100                       0                       0                       0
90                     102                     106              105.656854                       0                       0                       0
91                     102                     106              102.828427                       0                       0                       0
92                     102                     106                     100                       0                       0                       0
93                     104                     104              105.656854                       0                       0                       0
94                     104                     104              102.828427                       0                       0                       0
95                     104                     104                     100                       0                       0                       0
96                     106                     106              105.656854                       0                       0                       0
97                     106                     106              102.828427                       0                       0                       0
98                     106                     106                     100                       0                       0                       0
99                     108                     104              105.656854                       0                       0                       0
100                     108                     104              102.828427                       0                       0                       0
101                     108                     104                     100                       0                       0                       0
102                     110                     106              105.656854                       0                       0                       0
103                     110                     106              102.828427                       0                       0                       0
104                     110                     106                     100                       0                       0                       0
105                     112                     104              105.656854                       0                       0                       0
106                     112                     104              102.828427                       0                       0                       0
107                     112                     104                     100                       0                       0                       0
108                     114                     106              105.656854                       0                       0                       0
109                     114                     106              102.828427                       0                       0                       0
110                     114                     106                     100                       0                       0                       0
111                     116                     104              105.656854                       0                       0                       0
112                     116                     104              102.828427                       0                       0                       0
113                     116                     104                     100                       0                       0                       0
114                     118                     106              105.656854                       0                       0                       0
115                     118                     106              102.828427                       0                       0                       0
116                     118                     106                     100                       0                       0                       0
117                     120                     104              105.656854                       0                       0                       0
118                     120                     104              102.828427                       0                       0                       0
119                     120                     104                     100                       0                       0                       0
120                     122                     106              105.656854                       0                       0                       0
121                     122                     106              102.828427                       0                       0                       0
122                     122                     106                     100                       0                       0                       0
123                     124                     104              105.656854                       0                       0                       0
124                     124                     104              102.828427                       0                       0                       0
125                     124                     104                     100                       0                       0                       0
126                     126                     106              105.656854                       0                       0                       0
127                     126                     106              102.828427                       0                       0                       0
128                     126                     106                     100                       0                       0                       0
129                     128                     104              105.656854                       0                       0                       0
130                     128                     104              102.828427                       0                       0                       0
131                     128                     104                     100                       0                       0                       0
132                     130                     106              105.656854                       0                       0                       0
133                     130                     106              102.828427                       0                       0                       0
134                     130                     106                     100                       0                       0                       0
135                     100                     108              105.656854                       0                       0                       0
136                     100                     108              102.828427                       0                       0                       0
137                     100                     108                     100                       0                       0                       0
138                     102                     110              105.656854                       0                       0                       0
139                     102                     110              102.828427                       0                       0                       0
140                     102                     110                     100                       0                       0                       0
141                     104                     108              105.656854                       0                       0                       0
142                     104                     108              102.828427                       0                       0                       0
143                     104                     108                     100                       0                       0                       0
144                     106                     110              105.656854                       0                       0                       0
145                     106                     110              102.828427                       0                       0                       0
146                     106                     110                     100                       0                       0                       0
147                     108                     108              105.656854                       0                       0                       0
148                     108                     108              102.828427                       0                       0                       0
149                     108                     108                     100                       0                       0                       0
150                     110                     110              105.656854                       0                       0                       0
151                     110                     110              102.828427                       0                       0                       0
152                     110                     110                     100                       0                       0                       0
153                     112                     108              105.656854                       0                       0                       0
154                     112                     108              102.828427                       0                       0                       0
155                     112                     108                     100                       0                       0                       0
156                     114                     110              105.656854                       0                       0                       0
157                     114                     110              102.828427                       0                       0                       0
158                     114                     110                     100                       0                       0                       0
159                     116                     108              105.656854                       0                       0                       0
160                     116                     108              102.828427                       0                       0                       0
161                     116                     108                     100                       0                       0                       0
162                     118                     110              105.656854                       0                       0                       0
163                     118                     110              102.828427                       0                       0                       0
164                     118                     110                     100                       0                       0                       0
165                     120                     108              105.656854                       0                       0                       0
166                     120                     108              102.828427                       0                       0                       0
167                     120                     108                     100                       0                       0                       0
168                     122                     110              105.656854                       0                       0                       0
169                     122                     110              102.828427                       0                       0                       0
170                     122                     110                     100                       0                       0                       0
171                     124                     108              105.656854                       0                       0                       0
172                     124                     108              102.828427                       0                       0                       0
173                     124                     108                     100                       0                       0                       0
174                     126                     110              105.656854                       0                       0                       0
175                     126                     110              102.828427                       0                       0                       0
176                     126                     110                     100                       0                       0                       0
177                     128                     108              105.656854                       0                       0                       0
178                     128                     108              102.828427                       0                       0                       0
179                     128                     108                     100                       0                       0                       0
180                     130                     110              105.656854                       0                       0                       0
181                     130                     110              102.828427                       0                       0                       0
182                     130                     110                     100                       0                       0                       0
183                     100                     112              105.656854                       0                       0                       0
184                     100                     112              102.828427                       0                       0                       0
185                     100                     112                     100                       0                       0                       0
186                     102                     114              105.656854                       0                       0                       0
187                     102                     114              102.828427                       0                       0                       0
188                     102                     114                     100                       0                       0                       0
189                     104                     112              105.656854                       0                       0                       0
190                     104                     112              102.828427                       0                       0                       0
191                     104                     112                     100                       0                       0                       0
192                     106                     114              105.656854                       0                       0                       0
193                     106                     114              102.828427                       0                       0                       0
194                     106                     114                     100                       0                       0                       0
195                     108                     112              105.656854                       0                       0                       0
196                     108                     112              102.828427                       0                       0                       0
197                     108                     112                     100                       0                       0                       0
198                     110                     114              105.656854                       0                       0                       0
199                     110                     114              102.828427                       0                       0                       0
200                     110                     114                     100                       0                       0                       0
201                     112                     112              105.656854                       0                       0                       0