ITEM: TIMESTEP
0
ITEM: NUMBER OF ATOMS
422
ITEM: BOX BOUNDS pp pp pp
0.0000000000000000e+00 3.2000000000000000e+01
0.0000000000000000e+00 3.2000000000000000e+01
0.0000000000000000e+00 3.2000000000000000e+01
ITEM: ATOMS id xu yu zu fx fy fz
1        13.1459321938386        15.9835208156773                 9.65685     0.00014391774051728    5.52248969552804e-06      -0.014556563235014
2        18.8274848400711        15.9892262416344                 9.65685   -0.000141108457554634    3.78475664375433e-06     -0.0145440088085995
3         17.402344993917         15.987795112765                 9.65685    0.000109236343075414     6.5653430766921e-06     -0.0144364056032725
4         14.571072038949        15.9849519429358                 9.65685   -0.000104851865495692    8.39369398637768e-06     -0.0144246724603458
5        16.7010751677692        14.7497248501637                 9.65685   -0.000278863245438798    5.17908435270498e-05     -0.0136860710723891
6        15.2748269908674        14.7482926087119                 9.65685    0.000287290096272763    6.35847984687965e-05     -0.0136309379123386
7        15.2723418650276        17.2230222053877                 9.65685    0.000273764098988327   -6.38811141676909e-05     -0.0136631370678837
8        16.6985900414216        17.2244544465825                 9.65685   -0.000265549677188587   -4.95389918035855e-05     -0.0137239243707816
9        14.5177569207574        13.5484462411751                 9.65685    0.000412192320069719   -0.000353763253255826     -0.0109595075095848
10        17.4605534827313        13.5514014038861                 9.65685    -0.00042427380742921    -0.00034498775053883     -0.0110095943483713
11        14.5128635507729         18.421345651893                 9.65685    0.000418962270367036    0.000337122912487067     -0.0108809015384496
12        17.4556601106552        18.4243008141789                 9.65685   -0.000434650869385711    0.000329141454221707      -0.010970509392015
13        13.1273112602358        13.5624445878976                 9.65685   -0.000514361887892778   -0.000213942909891879     -0.0120047731662363
14        13.1224488081137        18.4045547622743                 9.65685   -0.000527401493831792    0.000199732177410789     -0.0119691331900512
15         18.850968226168        13.5681922935721                 9.65685    0.000516042454359989   -0.000220499084544309     -0.0119239644187625
16        18.8461057714963        18.4103024705805                 9.65685      0.0005241872489406     0.00021393784896509     -0.0118732020700683
17         12.426795838139        17.1943199436399                 9.65685   -0.000159232474937236    6.56574852863678e-05     -0.0142342215495873
18        12.4292290587396        14.7712798150634                 9.65685   -0.000171559089562162   -6.16905508424764e-05     -0.0142036647961113
19        19.5466211966922        14.7784271122721                 9.65685    0.000178349256751711   -5.40138458307259e-05     -0.0141741811343242
20        19.5441879750283        17.2014672429596                 9.65685    0.000172241752133925    5.51617044290409e-05     -0.0141872260477728
21        20.9551350226241        14.8244350858224                 9.65685   -0.000300390906898445    0.000186611097330661     -0.0132123133690138
22        20.9527913622507        17.1582882295758                 9.65685   -0.000290066680037841   -0.000185469546165788     -0.0132502362456961
23        11.0206256731611        14.8144588294926                 9.65685    0.000309759263671326    0.000201057989658253     -0.0131347722085511
24        11.0182820131454        17.1483119722736                 9.65685    0.000288332910418455   -0.000201842688380986     -0.0132013422138993
25        21.5867264607395        15.9919970781177                 9.65685    0.000104668189067757    2.90450003483745e-07    -0.00926189884211004
26        10.3866905744716        15.9807499786644                 9.65685   -9.86065007708692e-05    3.24862129866134e-07    -0.00926090461038587
27         21.609196045824        18.1859221409264                 9.65685   -6.34973191907251e-05    2.71346294254682e-05    -0.00786017407537297
28        21.6136022867001        13.7981215696947                 9.65685   -6.23909141811754e-05   -2.93127335658649e-05    -0.00786294081567027
29        10.3598147507275        18.1746254872963                 9.65685    6.01687615042399e-05    2.67268156971816e-05    -0.00783199504039212
30        10.3642209902605        13.7868249167297                 9.65685    5.90879962373144e-05   -3.19568583776183e-05    -0.00785064529701992
31        12.5998668222426        12.6154548000933                 9.65685    0.000130077373679982    0.000132434768894234    -0.00549823308211981
32        12.5931035005993        19.3504833212092                 9.65685    0.000128792798469335   -0.000136993201187097    -0.00550152440172366
33        19.3803135329519        12.6222637346313                 9.65685   -0.000132750393880388    0.000133197440197039    -0.00550127579001064
34        19.3735502071424         19.357292260389                 9.65685   -0.000133498965438836   -0.000135844833812765    -0.00550440253219499
35        14.9622865728669        12.5689605638796                 9.65685   -0.000157581231296167    0.000121016312303601    -0.00555008863843136
36         14.955425108682        19.4017221461408                 9.65685   -0.000157048178899777   -0.000125008111284852    -0.00555250557826613
37        17.0179919240215        12.5710249097393                 9.65685    0.000157962870676376    0.000121559179604575    -0.00554761446335235
38         17.011130457531        19.4037864905846                 9.65685    0.000157705602625957   -0.000125186146797546    -0.00554814771866157
39                       0                       0                5.656854                       0                       0                       0
40                       0                       0                2.828427                       0                       0                       0
41                       0                       0                       0                       0                       0                       0
42                       2                       2                5.656854    3.83884410345788e-10    5.40968290803962e-10      1.835838756094e-10
43                       2                       2                2.828427                       0                       0                       0
44                       2                       2                       0                       0                       0                       0
45                       4                       0                5.656854                       0                       0                       0
46                       4                       0                2.828427                       0                       0                       0
47                       4                       0                       0                       0                       0                       0
48                       6                       2                5.656854    1.17111807564866e-08    2.34724812447981e-08    8.09602678788327e-09
49                       6                       2                2.828427    1.98721285421251e-10    4.33959704072771e-10    2.61075576010449e-10
50                       6                       2                       0                       0                       0                       0
51                       8                       0                5.656854    3.27683740867536e-10    2.42983479952132e-11    3.26836903258317e-10
52                       8                       0                2.828427                       0                       0                       0
53                       8                       0                       0                       0                       0                       0
54                      10                       2                5.656854    4.89810033072516e-08    1.90260565636073e-07    6.69813608236032e-08
55                      10                       2                2.828427    1.24328967395457e-09     5.0012514049719e-09    3.00766867925673e-09
56                      10                       2                       0    1.22993567881926e-10    5.02192131297922e-10     4.5684279896154e-10
57                      12                       0                5.656854    7.47759428986713e-10    1.33606557237428e-10    1.85703685112407e-09
58                      12                       0                2.828427    3.43711989313466e-10    5.63110178670604e-11    1.51278257589806e-09
59                      12                       0                       0                       0                       0                       0
60                      14                       2                5.656854    3.02187245570089e-08    4.64083855134946e-07    1.65643528950739e-07
61                      14                       2                2.828427     7.7861469766225e-10    1.19563664100017e-08    7.27046419022648e-09
62                      14                       2                       0    1.12403053318511e-10    1.83843713773823e-09    1.67709024146188e-09
63                      16                       0                5.656854   -4.78343512157664e-12    1.83725971936232e-10    2.94171764763077e-09
64                      16                       0                2.828427   -2.80333988612284e-12    9.18734083037687e-11    2.84489819731786e-09
65                      16                       0                       0                       0                       0                       0
66                      18                       2                5.656854   -3.09543252977395e-08    4.61527731560419e-07    1.64694790899145e-07
67                      18                       2                2.828427   -7.97901600309738e-10     1.1896994452411e-08    7.23279354739447e-09
68                      18                       2                       0   -1.15404468781299e-10    1.83062328037403e-09    1.66953784240116e-09
69                      20                       0                5.656854   -7.52887902220966e-10    9.83595454188623e-11    1.84776332780089e-09
70                      20                       0                2.828427   -3.47155811213479e-10    4.15975035984015e-11    1.50587401262886e-09
71                      20                       0                       0                       0                       0                       0
72                      22                       2                5.656854    -4.8544535699951e-08    1.87197794954134e-07    6.58692679993073e-08
73                      22                       2                2.828427   -1.23420948199005e-09    4.92799999299361e-09    2.96206306381616e-09
74                      22                       2                       0   -1.22289491924426e-10    4.95857520178371e-10    4.50791075552287e-10
75                      24                       0                5.656854   -3.25444603906633e-10    1.50515610404182e-11    3.22976794416199e-10
76                      24                       0                2.828427                       0                       0                       0
77                      24                       0                       0                       0                       0                       0
78                      26                       2                5.656854   -1.14595139146773e-08    2.28878678536872e-08    7.88919471253783e-09
79                      26                       2                2.828427   -1.94822275243773e-10    4.23917806014814e-10    2.54835793934762e-10
80                      26                       2                       0                       0                       0                       0
81                      28                       0                5.656854                       0                       0                       0
82                      28                       0                2.828427                       0                       0                       0
83                      28                       0                       0                       0                       0                       0
84                      30                       2                5.656854                       0                       0                       0
85                      30                       2                2.828427                       0                       0                       0
86                      30                       2                       0                       0                       0                       0
87                       0                       4                5.656854    3.77366416106947e-12    2.10107985008617e-10    8.58250836481878e-11
88                       0                       4                2.828427                       0                       0                       0
89                       0                       4                       0                       0                       0                       0
90                       2                       6                5.656854    6.35694837470877e-08    5.80155062951537e-08    2.87221766809077e-08
91                       2                       6                2.828427    1.56180053325182e-09    1.45078337801322e-09    1.22777213380386e-09
92                       2                       6                       0    4.05338488843874e-10    3.77357299420272e-10    4.67980579488498e-10
93                       4                       4                5.656854    7.26490799019595e-09    9.90154610927477e-09    4.02008360732857e-09
94                       4                       4                2.828427    5.94965597251861e-09    8.14368505404835e-09    5.69321101723154e-09
95                       4                       4                       0                       0                       0                       0
96                       6                       6                5.656854    1.91524078524185e-06     2.8243568347184e-06    1.43328559215602e-06
97                       6                       6                2.828427    3.84650178880779e-08    5.59312114771557e-08    4.80545134037262e-08
98                       6                       6                       0     1.1937748404385e-08    1.70429582965365e-08    2.07958793127122e-08
99                       8                       4                5.656854    7.82195702440637e-08    1.83418224937622e-07    7.64187009411093e-08
100                       8                       4                2.828427     5.7411679349586e-08    1.33895890486106e-07     9.4889095507912e-08
101                       8                       4                       0    5.01427935708035e-10    1.22530191472695e-09    1.24199214440785e-09
102                      10                       6                5.656854    1.14175811162448e-05    3.38785679979945e-05    1.80653185661988e-05
103                      10                       6                2.828427    1.71630092083885e-07    4.98561801618696e-07    4.46022332649373e-07
104                      10                       6                       0     4.2282172055322e-08    1.21462531070221e-07    1.51314081667013e-07
105                      12                       4                5.656854    1.51724272973951e-07    9.02508481287996e-07    3.87993088907184e-07
106                      12                       4                2.828427    9.94198191570839e-08     5.7417930881131e-07    4.16995833599379e-07
107                      12                       4                       0    8.93593010524474e-10    5.33485626402394e-09    5.48382490524057e-09
108                      14                       6                5.656854    6.34689895802286e-06    9.21669279892489e-05    5.07761245216042e-05
109                      14                       6                2.828427     9.4469928008069e-08    1.20001622191101e-06    1.10526026886599e-06
110                      14                       6                       0    2.35635573083176e-08    2.65343261303838e-07     3.3920475431044e-07
111                      16                       4                5.656854   -1.40063260000973e-09    1.34315647882184e-06    5.83325659139256e-07
112                      16                       4                2.828427   -8.75231802840223e-10    8.35317713047646e-07    6.12472554862303e-07
113                      16                       4                       0   -8.18145960979779e-12    7.72877838553388e-09    8.01005448675157e-09
114                      18                       6                5.656854   -6.52368967724872e-06     9.1643554008398e-05    5.04662620100171e-05
115                      18                       6                2.828427   -9.67995389430371e-08    1.19428174226399e-06    1.09956004497905e-06
116                      18                       6                       0   -2.40884901134191e-08      2.642769618831e-07    3.37726187934482e-07
117                      20                       4                5.656854    -1.5189441172423e-07    8.92146410648623e-07    3.83337151800388e-07
118                      20                       4                2.828427   -9.96350489550087e-08    5.68406598248385e-07    4.12600526866648e-07
119                      20                       4                       0   -8.97264520969416e-10    5.28912789318643e-09    5.43409078588443e-09
120                      22                       6                5.656854    -1.1292808239691e-05    3.32691797075645e-05    1.77236749507647e-05
121                      22                       6                2.828427   -1.70205334640775e-07    4.90975586443427e-07    4.38860108618944e-07
122                      22                       6                       0   -4.20327794613392e-08    1.19912048717908e-07    1.49263361672303e-07
123                      24                       4                5.656854   -7.68589961620915e-08     1.7935500506445e-07    7.46686830890318e-08
124                      24                       4                2.828427   -5.65476904280679e-08    1.31253399260067e-07     9.2947240449109e-08
125                      24                       4                       0   -4.95305079858578e-10    1.20440063900905e-09    1.21982091003707e-09
126                      26                       6                5.656854   -1.86756317279484e-06    2.74485733619403e-06    1.39142703929391e-06
127                      26                       6                2.828427    -3.7638934192225e-08    5.45525451093717e-08    4.68221250190235e-08
128                      26                       6                       0   -1.17225878684308e-08    1.66836177163385e-08    2.03366525306458e-08
129                      28                       4                5.656854   -7.06507128104705e-09    9.60526343918695e-09    3.89638697717808e-09
130                      28                       4                2.828427   -5.80106107016166e-09    7.92146406644009e-09    5.53278390857273e-09
131                      28                       4                       0                       0                       0                       0
132                      30                       6                5.656854   -6.15164110488652e-08    5.60545719738551e-08    2.77197689875972e-08
133                      30                       6                2.828427    -1.5158926643096e-09    1.40601647092421e-09    1.18848515958345e-09
134                      30                       6                       0   -3.94934052871387e-10     3.6723082562841e-10    4.54762466419018e-10
135                       0                       8                5.656854    2.51027488233846e-10    8.22495801918884e-09    5.24260652367643e-09
136                       0                       8                2.828427    1.88958756430859e-10    6.89100479772702e-09    7.46723749587346e-09
137                       0                       8                       0                       0                       0                       0
138                       2                      10                5.656854    1.90751574704835e-06    9.71970170450109e-07    8.78942622781472e-07
139                       2                      10                2.828427    3.94540387521874e-08    2.03156589694336e-08    3.07314763484873e-08
140                       2                      10                       0    1.12348451654078e-08    5.63129668081661e-09    1.23949562628732e-08
141                       4                       8                5.656854    5.86582124703997e-07    5.20834979884196e-07    3.39663531951738e-07
142                       4                       8                2.828427    3.55591776055457e-07    3.14226638492681e-07    3.45252649413517e-07
143                       4                       8                       0    3.09359476517245e-09     2.7058680133359e-09    4.24271017740352e-09
144                       6                      10                5.656854    0.000130650459193009    0.000111389058059839    0.000106412049591904
145                       6                      10                2.828427    1.34972162380782e-06    1.14056926832282e-06    1.79916772150059e-06
146                       6                      10                       0    2.52566804246917e-07    2.12005554941673e-07    4.58162493099851e-07
147                       8                       8                5.656854    1.13493733249165e-05     1.8905899488699e-05    1.29175139546818e-05
148                       8                       8                2.828427    4.26947216578497e-06     6.8636884775457e-06    7.84983612289702e-06
149                       8                       8                       0    2.71082148520636e-08    4.23301179468993e-08    6.71671036046447e-08
150                      10                      10                5.656854     0.00111339801413353     0.00221816545461925     0.00231156158138662
151                      10                      10                2.828427    6.89846146260958e-06    1.29406334914585e-05    2.18543084027528e-05
152                      10                      10                       0    9.01876940305123e-07    1.60271703554637e-06    3.64984883803617e-06
153                      12                       8                5.656854    2.69360481272416e-05    0.000123051600792529    9.09248843499661e-05
154                      12                       8                2.828427    7.54993459357017e-06    3.26044309300681e-05     3.9552865691255e-05
155                      12                       8                       0    3.96591316281074e-08    1.60823351136114e-07    2.66348275613214e-07
156                      14                      10                5.656854    0.000407532205360141     0.00589505175977207     0.00678303758063119
157                      14                      10                2.828427    2.82159739431462e-06    2.92302925663745e-05     5.3121738041612e-05
158                      14                      10                       0    4.02343212868942e-07    3.26725044111189e-06    7.84256912242797e-06
159                      16                       8                5.656854   -1.99386916862943e-07    0.000178208296175376    0.000134811895783021
160                      16                       8                2.828427   -5.43289327121897e-08    4.57872537237904e-05    5.67641122715417e-05
161                      16                       8                       0   -2.75407312889716e-10    2.20776452511124e-07    3.72414263960662e-07
162                      18                      10                5.656854   -0.000424255655583677     0.00587311585553267     0.00675106189847355
163                      18                      10                2.828427   -2.90235311405925e-06    2.91385861499093e-05     5.2911080007613e-05
164                      18                      10                       0   -4.11382177999073e-07    3.25842183925619e-06    7.81605949828057e-06
165                      20                       8                5.656854   -2.69682355433231e-05    0.000121596748144245    8.97504349674186e-05
166                      20                       8                2.828427   -7.57146104480692e-06    3.23010796490483e-05    3.91473310209456e-05
167                      20                       8                       0   -3.98095795472153e-08    1.59605516653897e-07    2.64110734242379e-07
168                      22                      10                5.656854    -0.00110175252999841     0.00218014315668755     0.00226700589541932
169                      22                      10                2.828427   -6.85122607449331e-06    1.27676212659646e-05    2.15239098525388e-05
170                      22                      10                       0   -8.97802098116085e-07    1.58546911704815e-06    3.60526096348478e-06
171                      24                       8                5.656854   -1.11221498635645e-05    1.84397925586346e-05    1.25803901790708e-05
172                      24                       8                2.828427     -4.202051993391e-06    6.72512223128755e-06    7.68125164439206e-06
173                      24                       8                       0   -2.67725408320689e-08    4.16257681626225e-08    6.59710796923599e-08
174                      26                      10                5.656854   -0.000127012873268131    0.000108010785602072    0.000102962579267954
175                      26                      10                2.828427   -1.31980493681225e-06    1.11249684895069e-06    1.75166008506759e-06
176                      26                      10                       0   -2.48123257335297e-07    2.07728226298607e-07    4.48203032170612e-07
177                      28                       8                5.656854   -5.68427262461146e-07    5.03721930598957e-07    3.28017464289538e-07
178                      28                       8                2.828427   -3.46100096528462e-07    3.05228035423699e-07    3.34911718817436e-07
179                      28                       8                       0   -3.02423927266843e-09    2.64027049967251e-09    4.13398195899562e-09
180                      30                      10                5.656854   -1.84135614927455e-06    9.37992333364765e-07    8.46688236617061e-07
181                      30                      10                2.828427   -3.82517474367212e-08     1.9684888432033e-08    2.97297709538857e-08
182                      30                      10                       0    -1.0141657241345e-08    5.11525306044064e-09    1.13013797099338e-08
183                       0                      12                5.656854     2.5973992069176e-09    3.80326703625438e-08    5.31791598243681e-08
184                       0                      12                2.828427    1.86326512373767e-09    3.07985502451061e-08    7.23490528133564e-08
185                       0                      12                       0    1.53674578366222e-11    2.71711712507999e-10    1.00743708009132e-09
186                       2                      14                5.656854    1.06194591141796e-05    1.55068757899916e-06    4.89610535852808e-06
187                       2                      14                2.828427    1.85248857640877e-07    2.87086302036945e-08    1.44994889773401e-07
188                       2                      14                       0    5.18911943290538e-08    8.23788535355231e-09    5.65551157788542e-08
189                       4                      12                5.656854    1.16960152249554e-05    4.50435285982667e-06    6.92677883506907e-06
190                       4                      12                2.828427    4.64434353661356e-06    1.85982178099687e-06    4.60275665667029e-06
191                       4                      12                       0    3.07851304263183e-08    1.27083700220542e-08    4.22859994300436e-08
192                       6                      14                5.656854     0.00127373287077625    0.000274980017687643     0.00105980333049863
193                       6                      14                2.828427    8.61651802333963e-06    2.09253271844906e-06    1.17706723331403e-05
194                       6                      14                       0    1.17403344047963e-06    3.03247749628678e-07    2.17408675212768e-06
195                       8                      12                5.656854    0.000476085574774703    0.000372360410684499    0.000634376702442456
196                       8                      12                2.828427    7.73031792179198e-05    5.96716724422688e-05    0.000158682441458616
197                       8                      12                       0    2.82410001780904e-07    2.14824567926506e-07    7.53394033138579e-07
198                      10                      14                5.656854      0.0098746596985995     0.00608229668765357      0.0234283775192343
199                      10                      14                2.828427     4.3311685993925e-05    2.60847942942219e-05    0.000164685205087533
200                      10                      14                       0    3.96900437690978e-06     2.3183401070869e-06    1.80272387623785e-05
201                      12                      12                5.656854    0.000869483301319051     0.00229324013187067     0.00463033281879868