ITEM: TIMESTEP
0
ITEM: NUMBER OF ATOMS
422
ITEM: BOX BOUNDS ff ff ff
0.0000000000000000e+00 2.3200000000000000e+02
0.0000000000000000e+00 2.3200000000000000e+02
0.0000000000000000e+00 2.3200000000000000e+02
ITEM: ATOMS id xu yu zu fx fy fz
1        114.145932193839        115.983520815677              108.656854     0.00475902044511312   -0.000458593375001023      0.0185102631973008
2        119.827484840071        115.989226241634              108.656854    -0.00429334444225446    -0.00119366496624752    -0.00585110660802681
3        118.402344993917        115.987795112765              108.656854     0.00590980084163403     0.00338841897058662      0.0158341074102195
4        115.571072038949        115.984951942936              108.656854     0.00417868769294588     0.00302707351157783     0.00110682207962202
5        117.701075167769        114.749724850164              108.656854     -0.0104002792244419      0.0406577213208881       0.126090468239135
6        116.274826990867        114.748292608712              108.656854    -0.00462367456185026     0.00941690259600564      0.0159675706529355
7        116.272341865028        117.223022205388              108.656854    -0.00433041531680886      -0.001681062575419      0.0149509440019671
8        117.698590041422        117.224454446583              108.656854     -0.0102261975808626     -0.0333072663472508       0.122124880499303
9        115.517756920757        113.548446241175              108.656854      0.0218867277408117     -0.0186639505512306      0.0331849665790308
10        118.460553482731        113.551401403886              108.656854      0.0178276801424176     -0.0378408435695683       0.165275359901009
11        115.512863550773        118.421345651893              108.656854      0.0226817730272863   -0.000471542453375301      0.0363277409726874
12        118.455660110655        118.424300814179              108.656854      0.0185234591768645      0.0184900165634473       0.169996744451312
13        114.127311260236        113.562444587898              108.656854      0.0236539478435692     -0.0414327790240805       0.187458468785978
14        114.122448808114        118.404554762274              108.656854      0.0234448183902588      0.0237170466352804       0.192777483761109
15        119.850968226168        113.568192293572              108.656854     -0.0216882798958267     -0.0163038035294226      0.0173092654360244
16        119.846105771496         118.41030247058              108.656854     -0.0206959725049766    0.000934708927466305      0.0193047442405316
17        113.426795838139         117.19431994364              108.656854     -0.0173254985557981      -0.022526408113231       0.099719387070943
18         113.42922905874        114.771279815063              108.656854     -0.0181163626355901      0.0318489564159324       0.104291334694599
19        120.546621196692        114.778427112272              108.656854    -0.00966514660567126     0.00937158299940236      0.0270963390712762
20        120.544187975028         117.20146724296              108.656854    -0.00945561490198259   -0.000406296803333123      0.0258830883197982
21        121.955135022624        114.824435085822              108.656854       0.121189513542285       0.143601739933236      0.0578962741061626
22        121.952791362251        117.158288229576              108.656854       0.118524567748592     -0.0451939869215862      0.0520023257542403
23        112.020625673161        114.814458829493              108.656854   -3.04151599840874e-05        0.11114753075263      0.0443447617829032
24        112.018282013145        117.148311972274              108.656854     0.00083967739695151     -0.0032081013264397      0.0410565230099578
25        122.586726460739        115.991997078118              108.656854     -0.0249663594118317     -0.0255454203599517     0.00015693257859088
26        111.386690574472        115.980749978664              108.656854    -0.00225671022788254     -0.0279828432000847     -0.0467788387984599
27        122.609196045824        118.185922140926              108.656854     -0.0814999414053565     -0.0435319712175062       0.166211871107388
28          122.6136022867        113.798121569695              108.656854     -0.0886141109627589     -0.0774180844229649       0.154963211324602
29        111.359814750727        118.174625487296              108.656854      0.0462163218510567     -0.0586440826875971      0.0335604145696898
30         111.36422099026         113.78682491673              108.656854      0.0480529770245345     -0.0766921070882572      0.0206031356697015
31        113.599866822243        112.615454800093              108.656854      -0.019938726440564      0.0241148914727832    -0.00560031614220875
32        113.593103500599        119.350483321209              108.656854     -0.0197166030135567      0.0182049612349085      -0.011452405383247
33        120.380313532952        112.622263734631              108.656854      0.0803221472168945      0.0272100616246353     0.00892075437399946
34        120.373550207142        119.357292260389              108.656854      0.0775501831020976      0.0129169018338135     0.00333009511711437
35        115.962286572867         112.56896056388              108.656854      0.0136116598905877      0.0162307414095639     0.00718162105981029
36        115.955425108682        119.401722146141              108.656854      0.0129849680902386      0.0112675233749608     0.00310255801430851
37        118.017991924022        112.571024909739              108.656854      0.0127696534622818      0.0131574013599323    -0.00883585854999757
38        118.011130457531        119.403786490585              108.656854      0.0117866923432002       0.014006989155942     -0.0124848232152183
39                     100                     100              105.656854       0.212346317420805       0.213947345644879      -0.975690683930824
40                     100                     100              102.828427       0.431854373361114       0.430435061923002    -0.00036915495565477
41                     100                     100                     100       0.212274442276303        0.21345556555011       0.976321377726003
42                     102                     102              105.656854      -0.344838539853647      -0.347522376306983      -0.277955640402837
43                     102                     102              102.828427     -0.0506041210285337     -0.0483150808657534    0.000677805437213248
44                     102                     102                     100      -0.344709167526446       -0.34651651727107       0.276834635263584
45                     104                     100              105.656854      0.0960721587890208       0.960252357750622      -0.808906793536087
46                     104                     100              102.828427     -0.0639900707105544       0.726528525105397   -0.000335713557762504
47                     104                     100                     100      0.0963089423533678       0.959590687779061       0.809449740515243
48                     106                     102              105.656854      -0.149675885538673      -0.515342168345955       -0.38155756600213
49                     106                     102              102.828427       0.142611689219569       0.066906519846226    0.000542684562011911
50                     106                     102                     100      -0.150354460807874      -0.514038384887121       0.380720111320654
51                     108                     100              105.656854       0.109728139020294        1.06063776980387       -0.80178615399866
52                     108                     100              102.828427      -0.111643551318761       0.639445136311431    6.98887909034339e-05
53                     108                     100                     100       0.110629574125591        1.06032994357225       0.801620618233855
54                     110                     102              105.656854        -0.1432268762717      -0.583064608509182      -0.374155397049726
55                     110                     102              102.828427       0.147890289844299       0.135618333168263   -0.000532478050837589
56                     110                     102                     100      -0.145419568519383      -0.583089248012574       0.375110933770493
57                     112                     100              105.656854       0.131285696834951        1.10907530901512       -0.81051921482235
58                     112                     100              102.828427      -0.135123172714297        0.58899353262177    0.000946048907946013
59                     112                     100                     100       0.132566248949248         1.1101341669009       0.808897577788528
60                     114                     102              105.656854      -0.162606267458259      -0.619596648186507      -0.361610912297999
61                     114                     102              102.828427       0.167833838834001       0.175312373968492    -0.00233732133202969
62                     114                     102                     100      -0.164658032979648      -0.622932202449589       0.365488398192531
63                     116                     100              105.656854        0.16575754143412        1.14387510831601      -0.821220772077864
64                     116                     100              102.828427      -0.170123367221391       0.552316676141215     0.00165292310197767
65                     116                     100                     100       0.166132721522224        1.14623061144196       0.818444503452146
66                     118                     102              105.656854      -0.208212753396115      -0.650075937613632      -0.347725934910373
67                     118                     102              102.828427       0.213415232356164        0.20745528157505    -0.00289301332272601
68                     118                     102                     100      -0.207417019808774      -0.654524510226668       0.352496109930515
69                     120                     100              105.656854       0.222799876851317        1.18172844609807      -0.835406151297804
70                     120                     100              102.828427      -0.228301265046639         0.5135093454442     0.00138542969370618
71                     120                     100                     100       0.221805492879997        1.18357960581169       0.833065528395326
72                     122                     102              105.656854      -0.288845647565136      -0.686588706502095      -0.329929103557581
73                     122                     102              102.828427       0.293562463221822       0.243383459129784    -0.00144141687739936
74                     122                     102                     100       -0.28632529340771      -0.688198475780884       0.332361481377057
75                     124                     100              105.656854       0.326595768579104        1.23607983532858      -0.852253169835851
76                     124                     100              102.828427      -0.323160766925488       0.459984357260186       0.000469302893596
77                     124                     100                     100       0.325392623205176        1.23634451282606        0.85141855951999
78                     126                     102              105.656854      -0.462405994240597      -0.727237574050365      -0.331882879333008
79                     126                     102              102.828427       0.397744823043635       0.281326406957475    0.000150961556080825
80                     126                     102                     100      -0.460980702845559      -0.726283927062906       0.331711515066445
81                     128                     100              105.656854       0.708635127405385        1.34056610162432      -0.754784600602658
82                     128                     100              102.828427      -0.281217993977055       0.396222174083951   -0.000193803147320785
83                     128                     100                     100       0.708098961711903        1.33997423237006         0.7550724349372
84                     130                     102              105.656854         -1.341026991966      -0.708867978200868      -0.755430880079806
85                     130                     102              102.828427      -0.395498272770107        0.28106816177066    0.000679142089867317
86                     130                     102                     100       -1.34087351061062      -0.707639333358977       0.754337087909634
87                     100                     104              105.656854       0.959317076433904      0.0997573995594223      -0.808509075065933
88                     100                     104              102.828427       0.727443850670874     -0.0670603098664396   -0.000946797302035865
89                     100                     104                     100       0.958743838450316      0.0986554761503759       0.810092171461662
90                     102                     106              105.656854      -0.514209145162325      -0.156447148341113      -0.382548245880116
91                     102                     106              102.828427      0.0656708854718726       0.147862267236778     0.00192689432641308
92                     102                     106                     100      -0.512842440313588      -0.154026935174399       0.379425906740192
93                     104                     104              105.656854       0.247925093616933       0.252791452572369       -0.38854829751085
94                     104                     104              102.828427      -0.180542977512171      -0.184445706300262    -0.00132815260998361
95                     104                     104                     100       0.247709589981239       0.250561610058714       0.390673174701479
96                     106                     106              105.656854      -0.234971189017732      -0.244796874588164      -0.504605396238258
97                     106                     106              102.828427       0.226484656651862       0.233565806363573     0.00276791420519545
98                     106                     106                     100      -0.234786291654223      -0.239387647594196       0.500217588678561
99                     108                     104              105.656854       0.174178328457561       0.339787676420839      -0.374863697204065
100                     108                     104              102.828427      -0.177757631036372      -0.269580250324525   -0.000780967903062942
101                     108                     104                     100       0.176330559571252       0.337222822978176       0.376023764147398
102                     110                     106              105.656854      -0.183402672255158      -0.296875927971794      -0.491607948780845
103                     110                     106              102.828427       0.192621525855669        0.28756835650407    0.000449206383298861
104                     110                     106                     100      -0.190866310547277      -0.292694261244383       0.490906548357707
105                     112                     104              105.656854       0.165939048591592       0.381755475776808      -0.390101397535749
106                     112                     104              102.828427      -0.173301286529537      -0.315814990636772     0.00217907179551853
107                     112                     104                     100       0.171139834209342       0.384060853124653       0.386453103073542
108                     114                     106              105.656854      -0.183540884096996      -0.311029191667082      -0.468427190588996
109                     114                     106              102.828427       0.194708126729837       0.313287682149698    -0.00720554880726862
110                     114                     106                     100       -0.19359540933236       -0.32287946767584       0.480810628206898
111                     116                     104              105.656854       0.195338608149265       0.405052879697823      -0.406388593267604
112                     116                     104              102.828427      -0.201496299943286      -0.343995659678248     0.00527972679777097
113                     116                     104                     100       0.197073216839856       0.413812853157384        0.39772126550705
114                     118                     106              105.656854      -0.236747191537907      -0.325815089169406      -0.449477685504115
115                     118                     106              102.828427       0.240791038590007       0.332721262960997    -0.00988996221453177
116                     118                     106                     100      -0.232758415282064      -0.343687301543337       0.466434112951244
117                     120                     104              105.656854       0.259752475757357       0.433059101694618      -0.422544655360326
118                     120                     104              102.828427      -0.264325085101653      -0.371245854649082     0.00405730570412134
119                     120                     104                     100       0.255304850232455       0.439213199747793       0.415852442208859
120                     122                     106              105.656854      -0.320926383966965      -0.357898186414173      -0.436133774090155
121                     122                     106              102.828427       0.320938596211374        0.35523682207636    -0.00309380791780895
122                     122                     106                     100      -0.309764769038424      -0.360571508860167       0.441429973414278
123                     124                     104              105.656854       0.369664923156105       0.462353226285723       -0.43907525021984
124                     124                     104              102.828427      -0.363450935954591      -0.396884896486242    0.000390747545266057
125                     124                     104                     100       0.365640523060648       0.461384581426172       0.438328013850676
126                     126                     106              105.656854      -0.468724528201434      -0.369357109544331      -0.441555672962439
127                     126                     106              102.828427       0.402764574546978       0.361285110167299     0.00232562957418389
128                     126                     106                     100       -0.46602600540968      -0.363089103433509       0.437837869601991
129                     128                     104              105.656854       0.728971992278748       0.462570919639246      -0.330629515616216
130                     128                     104              102.828427      -0.283392791805703      -0.397085311973948    -0.00126850039491942
131                     128                     104                     100       0.728352883088156       0.459862258456227       0.332610485022999
132                     130                     106              105.656854       -1.23715318282855       -0.32927531432497      -0.853942497361867
133                     130                     106              102.828427        -0.4581932974755       0.324365949293968     0.00242984522064149
134                     130                     106                     100       -1.23839519168238      -0.325530392323217       0.850068902232798
135                     100                     108              105.656854        1.06288849563013       0.115904940254053      -0.800297686129798
136                     100                     108              102.828427       0.638105471290234      -0.116488123973041    -0.00207808687802908
137                     100                     108                     100        1.06085666549098       0.114052101373394       0.803706043351214
138                     102                     110              105.656854       -0.58927950018926      -0.154024472665061      -0.377999048307355
139                     102                     110              102.828427       0.138900234070679       0.155585621951186     0.00435562553489404
140                     102                     110                     100      -0.584235534790294      -0.150287566413969       0.371005663236517
141                     104                     108              105.656854          0.339068071453       0.187834291008198      -0.371938608337893
142                     104                     108              102.828427      -0.268014995851779      -0.187132468828624    -0.00424228320620985
143                     104                     108                     100       0.335482564970891       0.182082895570549       0.378730495597397
144                     106                     110              105.656854      -0.300135854714631      -0.213826396443365      -0.502477169972664
145                     106                     110              102.828427         0.2857426342022       0.209452766229872      0.0098763906944405
146                     106                     110                     100      -0.289965763522016      -0.199450363129058       0.485270703663368
147                     108                     108              105.656854       0.227645400459917        0.25078378134135      -0.358612890789765
148                     108                     108              102.828427        -0.2316318636486      -0.245195775879396    -0.00583837165038395
149                     108                     108                     100        0.22907988609809       0.236460330619033       0.369019174868916
150                     110                     110              105.656854      -0.202517396375242      -0.267547859278628        -0.5002518280814
151                     110                     110              102.828427       0.220876040391478       0.246485568577889     0.00988758723050945
152                     110                     110                     100       -0.22278312781682      -0.233776415516247       0.472710801891451
153                     112                     108              105.656854       0.175515019367066        0.26853415572548      -0.386555947652906
154                     112                     108              102.828427      -0.197355508109341      -0.273430674769949     0.00386895425182889
155                     112                     108                     100        0.20050755426966       0.268662477108294        0.38002103076393
156                     114                     110              105.656854      -0.157364775305692      -0.201100977835332      -0.400187063815588
157                     114                     110              102.828427       0.202231403611599       0.250469276847116      -0.020303068649097
158                     114                     110                     100      -0.210608378320627      -0.250417415465154       0.467503457907909
159                     116                     108              105.656854       0.208844141750333       0.251482443873036       -0.42484644531252
160                     116                     108              102.828427      -0.220318995630029      -0.282289409504215      0.0186193217932884
161                     116                     108                     100       0.217566799797395       0.286157967368817       0.389073276998958
162                     118                     110              105.656854      -0.264183911914751      -0.186237575718337      -0.358930182559312
163                     118                     110              102.828427       0.258530258599385       0.254807440533119      -0.031514023653264
164                     118                     110                     100      -0.246208211869263      -0.259345938679295       0.454441958095078
165                     120                     108              105.656854         0.2960019779141       0.278059203950143      -0.435101297483069
166                     120                     108              102.828427      -0.288382930797034      -0.299658115222077      0.0126918319967122
167                     120                     108                     100       0.272876444078101       0.299406729870625       0.410693762671077
168                     122                     110              105.656854      -0.376288667672198      -0.268170935225504      -0.413425315878385
169                     122                     110              102.828427       0.337743529207449       0.272830511657672    -0.00261870952817432
170                     122                     110                     100      -0.315846280274399      -0.264455465240849       0.421942705227039
171                     124                     108              105.656854       0.383040502002547       0.318317657524717      -0.432388751330038
172                     124                     108              102.828427      -0.371601627189448      -0.314490391390204    -0.00315499118473432
173                     124                     108                     100       0.370212591874772        0.30452872672214       0.439146526869796
174                     126                     110              105.656854      -0.442495549859329      -0.281256049778163         -0.440217924476
175                     126                     110              102.828427       0.384338902989375       0.268784544910554      0.0123753349086178
176                     126                     110                     100      -0.448780136916367      -0.255067224238143       0.414420900451954
177                     128                     108              105.656854       0.689641164368471       0.296042749446727      -0.325208414477219
178                     128                     108              102.828427      -0.248150333983925       -0.29599920631443    -0.00547661190543245
179                     128                     108                     100       0.692727500358337       0.286385386299424       0.334197379068626
180                     130                     110              105.656854       -1.17865206331927      -0.230456828764793      -0.840801265511915
181                     130                     110              102.828427      -0.512453781120535       0.232135948274537     0.00665864229775134
182                     130                     110                     100       -1.18629029923917      -0.223224926947443        0.83000740454362
183                     100                     112              105.656854        1.11731396426919       0.137279135036591      -0.807267507631598
184                     100                     112              102.828427       0.583654963108652      -0.139636229659206    -0.00352231681318548
185                     100                     112                     100        1.11292788088571       0.135591556192949        0.81298117208818
186                     102                     114              105.656854      -0.636547242513579      -0.169512528614115      -0.369137075284144
187                     102                     114              102.828427       0.184828152662241       0.172611023943352     0.00675335098803926
188                     102                     114                     100      -0.627104185912134      -0.167562631801253       0.358295138912739
189                     104                     112              105.656854       0.398962169120696       0.184256102608338         -0.378881752354
190                     104                     112              102.828427      -0.323030013083072      -0.184641434130276    -0.00940761084157773
191                     104                     112                     100       0.385982560314447       0.177371649690809       0.394400471329793
192                     106                     114              105.656854      -0.353569887569606      -0.207173728498157      -0.502967549142907
193                     106                     114              102.828427       0.325603322936406       0.207473163569615      0.0190080132526306
194                     106                     114                     100      -0.324770890364716      -0.199708019058378       0.466834306100554
195                     108                     112              105.656854       0.292483155541533       0.243740804147907      -0.333337819931945
196                     108                     112              102.828427      -0.269724368003616      -0.223696641495851     -0.0210067840136021
197                     108                     112                     100       0.263813004896671       0.211507320747132       0.390601133377251
198                     110                     114              105.656854      -0.229588916996821      -0.207185839780426       -0.62811599462136
199                     110                     114              102.828427       0.234820559485403       0.228429585644928       0.026117399045981
200                     110                     114                     100      -0.241679295295067       -0.22076958117426       0.452319856772581
201                     112                     112              105.656854      0.0994319568252598       0.265463062563187      -0.350423223617106