ITEM: TIMESTEP
0
ITEM: NUMBER OF ATOMS
422
ITEM: BOX BOUNDS pp pp pp
0.0000000000000000e+00 3.2000000000000000e+01
0.0000000000000000e+00 3.2000000000000000e+01
0.0000000000000000e+00 3.2000000000000000e+01
ITEM: ATOMS id xu yu zu fx fy fz
1        13.1459321938386        15.9835208156773                11.05685    5.00001253598501e-05   -1.45329151994698e-06    -0.00337728020887804
2        18.8274848400711        15.9892262416344                11.05685   -4.94661916202213e-05   -9.52812937251297e-07    -0.00337950630006612
3         17.402344993917         15.987795112765                11.05685    4.14075842045831e-05   -1.10300125843095e-06    -0.00339736596044887
4         14.571072038949        15.9849519429358                11.05685   -4.01047570722445e-05   -1.36288839965951e-06    -0.00339920346826136
5        16.7010751677692        14.7497248501637                11.05685    5.05419521582153e-05   -4.93390200884747e-05    -0.00341864114862555
6        15.2748269908674        14.7482926087119                11.05685   -5.14787283289469e-05   -4.94116050764026e-05    -0.00342079393104891
7        15.2723418650276        17.2230222053877                11.05685   -5.14260196676942e-05     5.0306938904406e-05    -0.00341861232228588
8        16.6985900414216        17.2244544465825                11.05685    5.03146940423693e-05    5.01192755033814e-05    -0.00341628356257022
9        14.5177569207574        13.5484462411751                11.05685   -4.20700536940147e-05    3.75323295069378e-05    -0.00350896857549804
10        17.4605534827313        13.5514014038861                11.05685    4.34123282776303e-05    3.72684482965786e-05    -0.00350763485820769
11        14.5128635507729         18.421345651893                11.05685   -4.18422659045538e-05   -3.54253763719084e-05    -0.00351110547836534
12        17.4556601106552        18.4243008141789                11.05685    4.37738374220291e-05   -3.55530925299377e-05    -0.00350873372318635
13        13.1273112602358        13.5624445878976                11.05685    5.68812269562833e-05    3.54121571228719e-05    -0.00348032459384185
14        13.1224488081137        18.4045547622743                11.05685    5.70851377536685e-05   -3.31100041280466e-05    -0.00348173744432227
15         18.850968226168        13.5681922935721                11.05685   -5.64698739175688e-05    3.50984554528092e-05    -0.00348267475895505
16        18.8461057714963        18.4103024705805                11.05685   -5.64390067547773e-05   -3.36221587383965e-05    -0.00348434278134471
17         12.426795838139        17.1943199436399                11.05685    3.50473119784967e-05    4.97520729960432e-05    -0.00339422715406309
18        12.4292290587396        14.7712798150634                11.05685    3.53371899254362e-05   -4.88374919836783e-05    -0.00339722711077081
19        19.5466211966922        14.7784271122721                11.05685    -3.6960049571451e-05   -4.91278579433497e-05     -0.0033980856254872
20        19.5441879750283        17.2014672429596                11.05685   -3.70485687162121e-05    4.96775421476467e-05     -0.0033965621607029
21        20.9551350226241        14.8244350858224                11.05685    5.60644821707957e-05    -5.2794705322722e-05    -0.00343498996904169
22        20.9527913622507        17.1582882295758                11.05685    5.59515453330076e-05    5.31703339039825e-05    -0.00343325033168508
23        11.0206256731611        14.8144588294926                11.05685   -5.62257328129367e-05   -5.26894988549328e-05    -0.00343811672293804
24        11.0182820131454        17.1483119722736                11.05685   -5.60189527733264e-05    5.35435301702779e-05    -0.00343504749908797
25        21.5867264607395        15.9919970781177                11.05685    1.89129546351732e-05    -4.5777230215864e-07    -0.00200136887161437
26        10.3866905744716        15.9807499786644                11.05685   -1.78564371211599e-05   -1.10371536532978e-06    -0.00200224254142205
27         21.609196045824        18.1859221409264                11.05685    2.11796884789689e-05   -1.04713235829834e-05     -0.0020817660736276
28        21.6136022867001        13.7981215696947                11.05685    2.09591130465194e-05    1.13445539023883e-05    -0.00208162401327255
29        10.3598147507275        18.1746254872963                11.05685   -1.96991041838879e-05   -9.87223123524617e-06    -0.00208307507422491
30        10.3642209902605        13.7868249167297                11.05685   -1.98864866085011e-05    1.19741867774951e-05    -0.00208218580002588
31        12.5998668222426        12.6154548000933                11.05685    1.51366922051027e-05    1.53696425716994e-05    -0.00107595524232541
32        12.5931035005993        19.3504833212092                11.05685    1.50887784106874e-05   -1.59008113866658e-05    -0.00107674782278089
33        19.3803135329519        12.6222637346313                11.05685   -1.54860618716564e-05    1.55231994021599e-05    -0.00107670811983328
34        19.3735502071424         19.357292260389                11.05685   -1.56406210610337e-05   -1.58658797389075e-05    -0.00107749334667891
35        14.9622865728669        12.5689605638796                11.05685   -1.85694411803101e-05    1.55328018007981e-05    -0.00108877575499333
36         14.955425108682        19.4017221461408                11.05685   -1.86272189967429e-05   -1.61079469376362e-05    -0.00108987349491729
37        17.0179919240215        12.5710249097393                11.05685    1.85994130180672e-05    1.55263382394423e-05    -0.00108816093700634
38         17.011130457531        19.4037864905846                11.05685    1.86647955719429e-05   -1.59877637680301e-05    -0.00108866360424281
39                       0                       0                5.656854                       0                       0                       0
40                       0                       0                2.828427                       0                       0                       0
41                       0                       0                       0                       0                       0                       0
42                       2                       2                5.656854                       0                       0                       0
43                       2                       2                2.828427                       0                       0                       0
44                       2                       2                       0                       0                       0                       0
45                       4                       0                5.656854                       0                       0                       0
46                       4                       0                2.828427                       0                       0                       0
47                       4                       0                       0                       0                       0                       0
48                       6                       2                5.656854    4.85416479185757e-09    9.95606049441931e-09     4.6570749401647e-09
49                       6                       2                2.828427    3.03239312661952e-11    4.87740632329985e-11    3.78065406774971e-11
50                       6                       2                       0                       0                       0                       0
51                       8                       0                5.656854    1.08635813898261e-10     1.1698395664707e-10    1.48929602749947e-10
52                       8                       0                2.828427                       0                       0                       0
53                       8                       0                       0                       0                       0                       0
54                      10                       2                5.656854    2.12153994598492e-08    8.30020845671377e-08    3.94264429510987e-08
55                      10                       2                2.828427    3.29396817815472e-10    1.28500600428025e-09    9.43957589811354e-10
56                      10                       2                       0                       0                       0                       0
57                      12                       0                5.656854     3.5920938663042e-10    6.18329453937481e-11    1.20256460703173e-09
58                      12                       0                2.828427                       0                       0                       0
59                      12                       0                       0                       0                       0                       0
60                      14                       2                5.656854    1.29796736790551e-08    1.96843599323546e-07    9.48711212699346e-08
61                      14                       2                2.828427    1.71046354619441e-10    3.00920867511242e-09    2.23660136003511e-09
62                      14                       2                       0                       0                       0                       0
63                      16                       0                5.656854   -2.34760898470041e-12    8.47621766189025e-11    1.89920770235602e-09
64                      16                       0                2.828427                       0                       0                       0
65                      16                       0                       0                       0                       0                       0
66                      18                       2                5.656854   -1.32933554485878e-08    1.95809666072031e-07    9.43522168840849e-08
67                      18                       2                2.828427   -1.76037738596849e-10    2.99521884214228e-09    2.22567017512734e-09
68                      18                       2                       0                       0                       0                       0
69                      20                       0                5.656854   -3.61763000964373e-10    4.55410615985932e-11    1.19676369085919e-09
70                      20                       0                2.828427                       0                       0                       0
71                      20                       0                       0                       0                       0                       0
72                      22                       2                5.656854   -2.10224498116488e-08    8.10873782556187e-08    3.85535931883642e-08
73                      22                       2                2.828427   -3.27169769717885e-10    1.26735288005526e-09    9.30487696773698e-10
74                      22                       2                       0                       0                       0                       0
75                      24                       0                5.656854   -8.87489165951671e-11    3.60340436490328e-12    1.03664768447398e-10
76                      24                       0                2.828427                       0                       0                       0
77                      24                       0                       0                       0                       0                       0
78                      26                       2                5.656854   -4.75393547254245e-09    9.71617431276654e-09    4.54176670741333e-09
79                      26                       2                2.828427   -2.97747251697784e-11    4.77779400812899e-11    3.70106703127488e-11
80                      26                       2                       0                       0                       0                       0
81                      28                       0                5.656854                       0                       0                       0
82                      28                       0                2.828427                       0                       0                       0
83                      28                       0                       0                       0                       0                       0
84                      30                       2                5.656854                       0                       0                       0
85                      30                       2                2.828427                       0                       0                       0
86                      30                       2                       0                       0                       0                       0
87                       0                       4                5.656854                       0                       0                       0
88                       0                       4                2.828427                       0                       0                       0
89                       0                       4                       0                       0                       0                       0
90                       2                       6                5.656854    2.80900642959993e-08    2.54771005870159e-08    1.70823089586428e-08
91                       2                       6                2.828427    3.33282857553502e-10     2.9523301253589e-10    3.17700433712908e-10
92                       2                       6                       0                       0                       0                       0
93                       4                       4                5.656854    3.20911827176432e-09    4.40563070270862e-09    2.41009099477456e-09
94                       4                       4                2.828427    1.23760245685821e-09    1.71935399931476e-09    1.48484828078835e-09
95                       4                       4                       0                       0                       0                       0
96                       6                       6                5.656854    7.25984065469619e-07    1.06236697633974e-06    7.25166500841806e-07
97                       6                       6                2.828427    9.80840476300248e-09    1.41971371704697e-08    1.46891362226819e-08
98                       6                       6                       0    1.05675375082965e-09    1.59651348530831e-09    2.36010668406591e-09
99                       8                       4                5.656854    3.19065920798816e-08    7.44153695810325e-08    4.17192973264799e-08
100                       8                       4                2.828427    1.56191300498434e-08    3.64764594184735e-08     3.1159437843178e-08
101                       8                       4                       0    4.99382530631001e-11    1.39888967040481e-10    1.66525413164898e-10
102                      10                       6                5.656854    3.74390249184948e-06     1.1006936324019e-05    7.85847314821775e-06
103                      10                       6                2.828427    3.90016291843227e-08     1.1199719614365e-07    1.19758376853922e-07
104                      10                       6                       0     6.4594799536248e-09    1.95180409890634e-08    2.82109998130906e-08
105                      12                       4                5.656854    5.79333489284599e-08     3.3941919280512e-07    1.96016461548888e-07
106                      12                       4                2.828427    2.58682121932496e-08    1.47437019186705e-07    1.28567163272502e-07
107                      12                       4                       0    1.33708121522641e-10    8.27907561898525e-10    9.97981409808248e-10
108                      14                       6                5.656854    2.07067254776657e-06    2.81537149721316e-05    2.07338502026883e-05
109                      14                       6                2.828427    2.13568852827557e-08    2.55931030484156e-07    2.81027687235019e-07
110                      14                       6                       0    3.49022759676584e-09    4.40085755945425e-08    6.45345508674607e-08
111                      16                       4                5.656854   -5.22224510691796e-10    4.99681799196538e-07    2.91434268217563e-07
112                      16                       4                2.828427    -2.2377541102229e-10    2.12953356592764e-07    1.87229683597489e-07
113                      16                       4                       0   -1.36629945842983e-12    1.27388351408209e-09    1.54290997262591e-09
114                      18                       6                5.656854   -2.12497399447347e-06    2.80066428668398e-05      2.061720291709e-05
115                      18                       6                2.828427   -2.18584273584221e-08    2.54810072449785e-07     2.7969606355096e-07
116                      18                       6                       0   -3.58342494762393e-09    4.38514369373683e-08     6.4279983111118e-08
117                      20                       4                5.656854   -5.80265923412111e-08    3.35755891112082e-07    1.93802377161022e-07
118                      20                       4                2.828427   -2.59386433222449e-08    1.46060476622245e-07    1.27305733399049e-07
119                      20                       4                       0   -1.34435849204199e-10    8.21466927958799e-10    9.89680442003164e-10
120                      22                       6                5.656854   -3.70741198148885e-06     1.0823818179281e-05    7.72079686196749e-06
121                      22                       6                2.828427   -3.87243050054273e-08    1.10434913103782e-07    1.17991112509523e-07
122                      22                       6                       0   -6.43309464726295e-09    1.92948052350032e-08    2.78637412679185e-08
123                      24                       4                5.656854   -3.13867029647118e-08    7.28516615216623e-08    4.08120987624176e-08
124                      24                       4                2.828427   -1.54041248801276e-08     3.5803508383774e-08     3.0561860780544e-08
125                      24                       4                       0    -4.9438757371636e-11    1.37718913425597e-10    1.63782538432582e-10
126                      26                       6                5.656854   -7.09110236400962e-07    1.03426209503295e-06    7.05236943396498e-07
127                      26                       6                2.828427   -9.61481658065388e-09    1.38724322379967e-08    1.43386657998838e-08
128                      26                       6                       0   -1.04037700439014e-09    1.56682350136325e-09    2.31318290670155e-09
129                      28                       4                5.656854   -3.12442930707034e-09    4.27883586132651e-09    2.33867627632552e-09
130                      28                       4                2.828427    -1.2086914457185e-09    1.67529707302219e-09    1.44533624227798e-09
131                      28                       4                       0                       0                       0                       0
132                      30                       6                5.656854   -2.72233820232205e-08    2.46533368251945e-08    1.65110586445267e-08
133                      30                       6                2.828427     -3.242657403271e-10    2.86874471261018e-10    3.08291005344057e-10
134                      30                       6                       0                       0                       0                       0
135                       0                       8                5.656854    9.89437906057321e-11    3.38715930670126e-09    2.94250448415764e-09
136                       0                       8                2.828427    3.33959275263472e-11    1.24528001987229e-09    1.76899410740958e-09
137                       0                       8                       0                       0                       0                       0
138                       2                      10                5.656854    7.31789750222221e-07    3.75907810094469e-07    4.54215256986712e-07
139                       2                      10                2.828427    1.01505346994411e-08     5.2255643339772e-09     9.4739718844538e-09
140                       2                      10                       0     1.0218246443405e-09    4.62621806408847e-10    1.35077275360516e-09
141                       4                       8                5.656854    2.15315921265268e-07     1.9076795957646e-07    1.66917338149466e-07
142                       4                       8                2.828427    8.96169218345219e-08    7.91340025351678e-08    1.04061574111716e-07
143                       4                       8                       0    4.38950315669792e-10    3.87088891553789e-10     7.1467536450133e-10
144                       6                      10                5.656854    3.53763126029809e-05     3.0035708721418e-05    3.81248950874776e-05
145                       6                      10                2.828427    2.62735549027478e-07    2.21046984566072e-07     4.1319718726912e-07
146                       6                      10                       0    4.02102200671971e-08     3.3831545678912e-08    8.30565482293435e-08
147                       8                       8                5.656854    3.28236544095843e-06    5.37184950629503e-06    4.90987614599851e-06
148                       8                       8                2.828427    8.72850047470308e-07     1.3805548239919e-06      1.882275070668e-06
149                       8                       8                       0    4.35890185819873e-09    6.76366192275979e-09     1.2318939477908e-08
150                      10                      10                5.656854     0.00023066924689152    0.000446632836239952    0.000612464949994037
151                      10                      10                2.828427      1.101086179322e-06     2.0070756009447e-06    3.98534368607448e-06
152                      10                      10                       0    1.29064594803544e-07    2.25163888038452e-07    5.75661966199286e-07
153                      12                       8                5.656854    6.65927589225483e-06    2.96369606406219e-05    2.89970497897489e-05
154                      12                       8                2.828427    1.38480053750211e-06    5.79315735404972e-06    8.31450151690699e-06
155                      12                       8                       0    6.00984430302528e-09    2.42046550847513e-08    4.55196030951563e-08
156                      14                      10                5.656854    8.92378243970498e-05     0.00109168978106558     0.00163236102896836
157                      14                      10                2.828427    4.71817487960961e-07    4.27596813493009e-06    9.03551709166031e-06
158                      14                      10                       0    5.97433042539497e-08    4.45095210997951e-07     1.1892051115346e-06
159                      16                       8                5.656854    -4.8653832021306e-08    4.22410309654672e-05    4.22826501576235e-05
160                      16                       8                2.828427   -9.78550496331492e-09    8.03416377845844e-06    1.17673696425408e-05
161                      16                       8                       0   -4.24181919427623e-11    3.31643380843545e-08    6.33640661005758e-08
162                      18                      10                5.656854   -9.22910572871406e-05     0.00108792249371118     0.00162523079626691
163                      18                      10                2.828427    -4.8359178299673e-07    4.26359320120536e-06    9.00260079913929e-06
164                      18                      10                       0   -6.09884654353348e-08    4.43962281119424e-07    1.18543987140722e-06
165                      20                       8                5.656854   -6.67333952923911e-06    2.93263679747412e-05    2.86635550883609e-05
166                      20                       8                2.828427   -1.38946744396637e-06    5.74470221827174e-06     8.2376124583008e-06
167                      20                       8                       0      -6.03775104745e-09    2.40393918657435e-08    4.51713944273486e-08
168                      22                      10                5.656854   -0.000228699625564429    0.000439846368723499    0.000601970760460738
169                      22                      10                2.828427   -1.09497170068764e-06    1.98313395061336e-06    3.93147446786593e-06
170                      22                      10                       0   -1.28596631715985e-07    2.22955845207327e-07    5.69233539229752e-07
171                      24                       8                5.656854   -3.22376429341907e-06    5.25173165964623e-06    4.79337241409858e-06
172                      24                       8                2.828427   -8.60620959863661e-07    1.35526009786472e-06    1.84550264806476e-06
173                      24                       8                       0   -4.31180426054113e-09    6.66186752731687e-09    1.21188720596562e-08
174                      26                      10                5.656854   -3.44980311327025e-05    2.92145312854362e-05    3.70088013859546e-05
175                      26                      10                2.828427   -2.57566450854976e-07    2.16132980257938e-07     4.0332779262967e-07
176                      26                      10                       0   -3.95789667314182e-08    3.32119355956091e-08    8.14066218658074e-08
177                      28                       8                5.656854   -2.09097698649331e-07    1.84891238083567e-07    1.61546081951956e-07
178                      28                       8                2.828427   -8.74112006792409e-08     7.7030516742471e-08    1.01164139571515e-07
179                      28                       8                       0    -4.3011609634718e-10    3.78642407776589e-10    6.97955008982496e-10
180                      30                      10                5.656854   -7.07805023702515e-07     3.6349989988107e-07    4.38472701939208e-07
181                      30                      10                2.828427   -9.86602750130478e-09    5.07367076060576e-09     9.1835729642983e-09
182                      30                      10                       0   -9.99289069541898e-10     4.5256873083519e-10    1.31748931141698e-09
183                       0                      12                5.656854    1.05074706583818e-09    1.63048676965468e-08    3.03681534585972e-08
184                       0                      12                2.828427    4.71921606622473e-10     8.6662265036132e-09    2.36112427568114e-08
185                       0                      12                       0                       0                       0                       0
186                       2                      14                5.656854      3.758300641808e-06     5.6574104822979e-07    2.33427211525356e-06
187                       2                      14                2.828427    4.49036757735173e-08     7.0873010525733e-09    4.19695623697119e-08
188                       2                      14                       0    8.36525120415499e-09    1.44542634309873e-09    1.07210673355371e-08
189                       4                      12                5.656854     3.4793749994151e-06    1.36690022624287e-06     2.7562944415784e-06
190                       4                      12                2.828427    9.69990583083755e-07    3.94813561412681e-07    1.14563176519883e-06
191                       4                      12                       0    5.11348070172342e-09    2.14853465319624e-09    8.04954995711368e-09
192                       6                      14                5.656854    0.000277475368196075    6.39194994041836e-05     0.00030609364470452
193                       6                      14                2.828427    1.40967787919323e-06    3.55135867195144e-07    2.27163433790219e-06
194                       6                      14                       0    1.69881833307872e-07     4.4705085630108e-08    3.54200771084004e-07
195                       8                      12                5.656854     8.7879859673276e-05    6.83370141384266e-05    0.000150193702959386
196                       8                      12                2.828427     1.1613422960336e-05    8.89818678165601e-06    2.74720375748601e-05
197                       8                      12                       0    3.88685595132203e-08    2.94481534845439e-08    1.15291231839584e-07
198                      10                      14                5.656854     0.00185338179563934      0.0011282022333268     0.00617338063627597
199                      10                      14                2.828427    5.66722046330028e-06    3.36491844542965e-06    2.37044574143562e-05
200                      10                      14                       0    5.05503582452533e-07    2.90443823818755e-07    2.46531760608347e-06
201                      12                      12                5.656854    0.000140614180414966    0.000358706405626523    0.000911579037478594