ITEM: TIMESTEP
0
ITEM: NUMBER OF ATOMS
422
ITEM: BOX BOUNDS ff ff ff
0.0000000000000000e+00 2.3200000000000000e+02
0.0000000000000000e+00 2.3200000000000000e+02
0.0000000000000000e+00 2.3200000000000000e+02
ITEM: ATOMS id xu yu zu fx fy fz
1        113.145932193839        117.683520815677              108.656854     -0.0373580622133546     -0.0163969025282616       0.115913731145451
2        118.827484840071        117.689226241634              108.656854       0.034584875134776     -0.0164922855628868       0.120279881329153
3        117.402344993917        117.687795112765              108.656854     -0.0300446728059546     -0.0141563413129336        0.14571696010971
4        114.571072038949        117.684951942936              108.656854      0.0349658461802745     -0.0145650789704141       0.149072833713017
5        116.701075167769        116.449724850164              108.656854     -0.0012531133533925   -0.000928908867018081     0.00912940243780811
6        115.274826990867        116.448292608712              108.656854     0.00906151419487581    -0.00119238196085909     0.00979626981173905
7        115.272341865028        118.923022205388              108.656854      0.0215603602504688      0.0151378945450003      0.0329844598543084
8        116.698590041422        118.924454446583              108.656854     -0.0135132935612211      0.0143752664695442       0.030863205668409
9        114.517756920757        115.248446241175              108.656854      0.0134343671712059      0.0297163321545879      0.0572270629887932
10        117.460553482731        115.251401403886              108.656854      -0.032191371094035      0.0292829790087949      0.0567980435647152
11        114.512863550773        120.121345651893              108.656854     0.00610253970935978     -0.0193637443955901      0.0151910128872272
12        117.455660110655        120.124300814179              108.656854      -0.023888391789538     -0.0189436347263838      0.0154345127488711
13        113.127311260236        115.262444587898              108.656854    -0.00741831834269737      0.0190263478960526      0.0344452915012978
14        113.122448808114        120.104554762274              108.656854      0.0018794831506418     -0.0127282647487064     0.00448090997449475
15        118.850968226168        115.268192293572              108.656854    -0.00866550500101706      0.0195164926561937      0.0370826912985382
16        118.846105771496         120.11030247058              108.656854     -0.0169845296270944     -0.0123453169997918     0.00715597286649639
17        112.426795838139         118.89431994364              108.656854    -0.00701915480540191       0.013605772283571      0.0186032907979488
18         112.42922905874        116.471279815063              108.656854     0.00129861059530649   -0.000635077061685869     0.00672299400643769
19        119.546621196692        116.478427112272              108.656854     0.00880096788601603    -0.00114786314666548     0.00573782742348448
20        119.544187975028         118.90146724296              108.656854      0.0172154619817195       0.013564213441465      0.0183006399692953
21        120.955135022624        116.524435085822              108.656854       0.146071394949107       0.158497664227592       0.029292920334194
22        120.952791362251        118.858288229576              108.656854       0.127862536695986     -0.0606070719048022      0.0264340313678158
23        111.020625673161        116.514458829493              108.656854     -0.0289546817039932       0.161641059194614      0.0516929643515835
24        111.018282013145        118.848311972274              108.656854     -0.0125451666642909     -0.0521547356172352      0.0497859813729365
25        121.586726460739        117.691997078118              108.656854     -0.0660569802230198     -0.0451304804370228       0.113007436027631
26        110.386690574472        117.680749978664              108.656854    3.56968963350858e-05     -0.0493687656502163      0.0997066096360766
27        121.609196045824        119.885922140926              108.656854      -0.160432250748335     -0.0549630043978463      0.0226467738015441
28          121.6136022867        115.498121569695              108.656854      -0.169349752739794     -0.0108006101704197      0.0338682558694151
29        110.359814750727        119.874625487296              108.656854      0.0166053930270163     -0.0666629804267519    -0.00719256852257294
30         110.36422099026         115.48682491673              108.656854       0.019686376034555     -0.0129424777076074      0.0028596389970145
31        112.599866822243        114.315454800093              108.656854     -0.0181120195667884     0.00693291308290102    -0.00685052059642206
32        112.593103500599        121.050483321209              108.656854     -0.0169412091578093      0.0451076877983361    -0.00325860862089214
33        119.380313532952        114.322263734631              108.656854      0.0607012028485334     0.00679697811397018     -0.0126399776952253
34        119.373550207142        121.057292260389              108.656854      0.0563176525899009      0.0422134337723011    -0.00907741713109683
35        114.962286572867         114.26896056388              108.656854     0.00830473898676715     0.00482915465521477    -0.00730808973689787
36        114.955425108682        121.101722146141              108.656854     0.00580690057222234      0.0285147359835386     -0.0091196972466266
37        117.017991924022        114.271024909739              108.656854      0.0185228989997318     0.00475212769580542    -0.00841567164229963
38        117.011130457531        121.103786490585              108.656854      0.0190481458430777      0.0280565694870617    -0.00994522075813734
39                     100                     100              105.656854       0.212125713604741       0.213619080172691      -0.975774485944801
40                     100                     100              102.828427        0.43202375342045       0.430702205589379   -0.000237114450510964
41                     100                     100                     100       0.212162707036456       0.213259431783529       0.976178466139274
42                     102                     102              105.656854       -0.34443164212162      -0.346896530002474      -0.277770158451576
43                     102                     102              102.828427     -0.0508894905690733     -0.0487908505832337    0.000405348609247338
44                     102                     102                     100      -0.344544956078243      -0.346196901443385       0.277103176949155
45                     104                     100              105.656854      0.0960252934132322       0.959601219573855      -0.809050271829558
46                     104                     100              102.828427     -0.0639828968355293       0.727028803212924   -0.000123802766597229
47                     104                     100                     100      0.0963359946362506       0.959250688010144       0.809239943345231
48                     106                     102              105.656854      -0.149733580830969      -0.514052981350472      -0.381233933275713
49                     106                     102              102.828427       0.142725560811559      0.0660055812983647    0.000110736932292858
50                     106                     102                     100      -0.150494929710907      -0.513493445780985       0.381095963348917
51                     108                     100              105.656854       0.110314358525165         1.0599008051213      -0.801915505532386
52                     108                     100              102.828427      -0.112129367376048       0.639985632556859    0.000248334000550649
53                     108                     100                     100        0.11099661264106        1.05998347833155       0.801460046152186
54                     110                     102              105.656854      -0.144771357422127      -0.582003069645169       -0.37398604763995
55                     110                     102              102.828427       0.149039740658047       0.134902118808375    -0.00074048472571135
56                     110                     102                     100      -0.146181713412754      -0.582672716743018       0.375270312626265
57                     112                     100              105.656854       0.132558373556616        1.10919164753795      -0.810409846690077
58                     112                     100              102.828427      -0.136098295611591       0.588937413755793    0.000797543514561889
59                     112                     100                     100       0.133232859733775        1.11014564290373       0.809031915949833
60                     114                     102              105.656854      -0.164848805641672      -0.620891428765786      -0.362166890260168
61                     114                     102              102.828427        0.16942191868576       0.176037693127606    -0.00167719353136893
62                     114                     102                     100      -0.165647102358101      -0.623254389884629       0.364981080848704
63                     116                     100              105.656854       0.166587445161232        1.14531117785625      -0.820791723357483
64                     116                     100              102.828427      -0.170771050065645       0.551360185769823     0.00108104078548665
65                     116                     100                     100       0.166586927688127         1.1467651190445       0.818943499003691
66                     118                     102              105.656854      -0.208445542646524       -0.65308591888105      -0.348733112013832
67                     118                     102              102.828427        0.21366517059575         0.2092814145179    -0.00167614267180503
68                     118                     102                     100       -0.20764536981932       -0.65544582003016        0.35154561487923
69                     120                     100              105.656854       0.222321068527223        1.18327226989048      -0.834978146120966
70                     120                     100              102.828427      -0.227989891750149       0.512431755473237    0.000797234694836346
71                     120                     100                     100       0.221647239651077        1.18422492590352       0.833600713506693
72                     122                     102              105.656854        -0.2870861066797      -0.688169944336097      -0.330456542676633
73                     122                     102              102.828427       0.292396872701258       0.244464025525504   -0.000740279983937377
74                     122                     102                     100      -0.285679509533501      -0.688837965057872       0.331740431330462
75                     124                     100              105.656854       0.325565609348512        1.23654311424082      -0.852113260968938
76                     124                     100              102.828427      -0.322386500576343       0.459602173296003    0.000249231351976348
77                     124                     100                     100       0.324885424517425        1.23662671237539       0.851656343031046
78                     126                     102              105.656854      -0.461030357211797      -0.726853210793554      -0.331804321592894
79                     126                     102              102.828427       0.396690183655443       0.281181961586681    0.000107902346187026
80                     126                     102                     100      -0.460272097217169      -0.726298115328145       0.331670870296462
81                     128                     100              105.656854        0.70800587776462        1.34024895959375      -0.754849415599689
82                     128                     100              102.828427      -0.280688360550426         0.3964095492043   -0.000121703129650652
83                     128                     100                     100       0.707696068737385        1.33990131701838       0.755035607001674
84                     130                     102              105.656854       -1.34065373722021      -0.708071698621016      -0.755212836182243
85                     130                     102              102.828427      -0.395871998514531       0.280553113310434    0.000401553885585721
86                     130                     102                     100       -1.34054016308721      -0.707377310873394       0.754552080580064
87                     100                     104              105.656854       0.958677861375458      0.0994100136450886      -0.808677993047739
88                     100                     104              102.828427       0.727921293205266     -0.0667931928246511   -0.000695194637712539
89                     100                     104                     100       0.958435477777447      0.0984723797991255       0.809838944893233
90                     102                     106              105.656854      -0.512853738933015      -0.155825944917185      -0.382137235680513
91                     102                     106              102.828427      0.0647625623045835        0.14742999798688      0.0013752271380943
92                     102                     106                     100      -0.512331486694251      -0.153761725470928       0.379915229248611
93                     104                     104              105.656854        0.24711609502642       0.251476997275106      -0.389013840751423
94                     104                     104              102.828427      -0.180054012530698      -0.183549800627329   -0.000717130799787201
95                     104                     104                     100       0.247484707306659       0.250032741184032       0.390148786613656
96                     106                     106              105.656854      -0.233233417921399      -0.241658100190719      -0.503220238118891
97                     106                     106              102.828427       0.225684422523648       0.231793897183108     0.00127124212694027
98                     106                     106                     100      -0.234550948683259      -0.238522840765391       0.501258974943378
99                     108                     104              105.656854       0.174799837855238        0.33706690985164      -0.375653016727953
100                     108                     104              102.828427      -0.178333369114808      -0.267940388724428    0.000116403299764183
101                     108                     104                     100       0.176788967071831       0.336378305118774       0.375375301303591
102                     110                     106              105.656854      -0.186771860391703      -0.291144237758076       -0.48970921082478
103                     110                     106              102.828427       0.194772382373617       0.284780237112887    -0.00125251432742609
104                     110                     106                     100      -0.192104918758503      -0.291516514624488        0.49186096298328
105                     112                     104              105.656854       0.169912341206016       0.381010714307883      -0.389965183211016
106                     112                     104              102.828427      -0.175863066878797      -0.315263561316656     0.00206044918336532
107                     112                     104                     100         0.1725919559044       0.383725071349627          0.386532303244
108                     114                     106              105.656854      -0.192197812789078      -0.314350888919967      -0.471158376118832
109                     114                     106              102.828427        0.19945250280499       0.314059082386499    -0.00525463239695651
110                     114                     106                     100      -0.195900883391072       -0.32293737577612       0.479825627741733
111                     116                     104              105.656854       0.198192308777381       0.409603895636468      -0.404372481929656
112                     116                     104              102.828427      -0.203399377917568      -0.346226036079364     0.00324397786507357
113                     116                     104                     100       0.198187609713353       0.414691356653145       0.399038350234688
114                     118                     106              105.656854      -0.237019397849271      -0.336568372799295      -0.455256499971352
115                     118                     106              102.828427       0.241368426237803       0.336962454335015    -0.00524608734905015
116                     118                     106                     100       -0.23330031876503      -0.345130977647036        0.46390940447082
117                     120                     104              105.656854       0.257503518217631        0.43767187596829      -0.420689505203164
118                     120                     104              102.828427       -0.26313065880289      -0.373766459774739     0.00205680346787345
119                     120                     104                     100       0.254826616086447       0.440375914698437       0.417262547048508
120                     122                     106              105.656854      -0.313480410946124       -0.36112322340573      -0.437934913517955
121                     122                     106              102.828427       0.317174946608405       0.357033205340999    -0.00124859241300967
122                     122                     106                     100      -0.308171196415286      -0.361484783823307       0.440080135969562
123                     124                     104              105.656854       0.366442956871071       0.462368593450862       -0.43897494417074
124                     124                     104              102.828427      -0.361338224642234      -0.397147138640819    0.000118861282054819
125                     124                     104                     100       0.364463318368023       0.461684162612764       0.438693466128848
126                     126                     106              105.656854       -0.46600280485533       -0.36595607352437      -0.440139724312224
127                     126                     106              102.828427        0.40065730870195       0.360029064686996     0.00126013023645607
128                     126                     106                     100      -0.464694632228846      -0.362843316086118       0.438196107354434
129                     128                     104              105.656854       0.728054446696436       0.460973368392629      -0.331157367003674
130                     128                     104              102.828427       -0.28254406727656      -0.396234732797604   -0.000710476194308195
131                     128                     104                     100       0.727687067953746       0.459539984705985       0.332281763866779
132                     130                     106              105.656854       -1.23753565331513      -0.327084309585819      -0.852976156680062
133                     130                     106              102.828427      -0.458308959890296       0.323167076632391     0.00136393221412666
134                     130                     106                     100       -1.23805256197877      -0.325036396986096       0.850772054274507
135                     100                     108              105.656854        1.06172765049806        0.11611959215904      -0.800498497297176
136                     100                     108              102.828427       0.638960215208626      -0.116624916766779    -0.00178282510386811
137                     100                     108                     100        1.06030998683106       0.114119998809945       0.803412995877652
138                     102                     110              105.656854      -0.587004778613547      -0.155059196371166      -0.377644194160179
139                     102                     110              102.828427       0.137360359820512       0.156161916467365     0.00384460461023432
140                     102                     110                     100       -0.58335147692316      -0.150542007348533       0.371487320235475
141                     104                     108              105.656854       0.335817288136647       0.186720263993492      -0.373107553960502
142                     104                     108              102.828427       -0.26620206951874       -0.18647527119339    -0.00293113814011221
143                     104                     108                     100       0.334652337769732       0.181731078595253       0.377766197223463
144                     106                     110              105.656854      -0.291067442162553      -0.212331407044542      -0.498405503514845
145                     106                     110              102.828427        0.28210841335338       0.208744578298121     0.00658842057167701
146                     106                     110                     100      -0.288738481647179      -0.199075355630334       0.487119836337747
147                     108                     108              105.656854       0.223858746652466       0.241917787465311      -0.363806538629288
148                     108                     108              102.828427      -0.230715159080273       -0.24169074017281    -0.00195377831171001
149                     108                     108                     100       0.229108734997638       0.235143482130161       0.367038349279645
150                     110                     110              105.656854      -0.201177074662308      -0.241641083672851      -0.477796718373381
151                     110                     110              102.828427       0.222062600961315       0.240616020058489    0.000641175804386003
152                     110                     110                     100      -0.223858441437468      -0.232070917712185        0.47585750034811
153                     112                     108              105.656854       0.190387812402171       0.259588628254008      -0.388864150045656
154                     112                     108              102.828427       -0.20376212408438      -0.269893825006844     0.00562560622224573
155                     112                     108                     100        0.20321651851094       0.267329145464636        0.37921141663259
156                     114                     110              105.656854      -0.195796729446026       -0.21294751913186      -0.429160676459894
157                     114                     110              102.828427       0.214281979065034       0.247466726399703     -0.0175905949947434
158                     114                     110                     100      -0.214919115733246      -0.249164602019914       0.466836614496163
159                     116                     108              105.656854       0.220218429407529       0.266226752498431      -0.411437526935115
160                     116                     108              102.828427      -0.226096159519842      -0.285731435736248      0.0113263682727485
161                     116                     108                     100       0.220181572336157       0.286766156366058        0.39195048795084
162                     118                     110              105.656854      -0.267024604618814      -0.224093822950082      -0.411937005701164
163                     118                     110              102.828427       0.261101968672939       0.258806188189767     -0.0175335658002783
164                     118                     110                     100      -0.247764560624875      -0.260132535345165       0.449470200338049
165                     120                     108              105.656854        0.28464232198556       0.293253422776171      -0.423627089933024
166                     120                     108              102.828427      -0.284437243197406      -0.304559104778279     0.00559779110045915
167                     120                     108                     100        0.27183641467853       0.300915692009313       0.414025069836043
168                     122                     110              105.656854      -0.335375925314717      -0.275192596062762      -0.421413767077846
169                     122                     110              102.828427       0.327558438610191       0.275178003591541    0.000665437268414533
170                     122                     110                     100      -0.312902426175328      -0.265558914842712       0.419432356994359
171                     124                     108              105.656854       0.373018901213075       0.311506649098528       -0.43615860510212
172                     124                     108              102.828427      -0.366249366024838      -0.313577842990458    -0.00194146355626703
173                     124                     108                     100       0.367817811941813       0.304769421613789       0.439365792691138
174                     126                     110              105.656854      -0.444373554334273      -0.268122407148363      -0.427002916678555
175                     126                     110              102.828427       0.381534626174771       0.266443528290891       0.006537889316548
176                     126                     110                     100      -0.446697897723223      -0.254980357611156       0.415819340810235
177                     128                     108              105.656854       0.690699277571812       0.290810328576472      -0.328393227527924
178                     128                     108              102.828427      -0.247571585591435      -0.293985738336847    -0.00290701533198778
179                     128                     108                     100        0.69185450797522        0.28586289936934       0.333012985807312
180                     130                     110              105.656854       -1.18247517174026      -0.227392650836957      -0.837626783492314
181                     130                     110              102.828427      -0.511468556948279       0.230901670584133     0.00381302403029754
182                     130                     110                     100       -1.18609506933506      -0.222913558960547        0.83152041293566
183                     100                     112              105.656854        1.11666318461817       0.138827390706526      -0.807086050726651
184                     100                     112              102.828427       0.584318629981958      -0.140633845324187     -0.0036512335357097
185                     100                     112                     100        1.11238927865077       0.136132268989878       0.812978524727862
186                     102                     114              105.656854      -0.636720587058645      -0.173045002449307      -0.370327323528468
187                     102                     114              102.828427       0.184112974227995       0.174583961258335     0.00760463117023967
188                     102                     114                     100       -0.62633781468623      -0.168483411763106       0.358041924219533
189                     104                     112              105.656854       0.394867903003106       0.188502343213392      -0.378965266263018
190                     104                     112              102.828427      -0.320336814169795      -0.186436909165111    -0.00878624140123202
191                     104                     112                     100       0.384594502441566       0.177995648386952       0.393685494945583
192                     106                     114              105.656854      -0.349647220391666      -0.220585275890805      -0.509110844252784
193                     106                     114              102.828427       0.321050303258547       0.211336876001589      0.0193628560098493
194                     106                     114                     100      -0.322667937533409       -0.20073516813682       0.467815442063742
195                     108                     112              105.656854       0.262871602191183       0.248837849577296      -0.351167369141781
196                     108                     112              102.828427      -0.263583262080761      -0.224106820372711     -0.0134716243675359
197                     108                     112                     100       0.262419780149858       0.211212007850426       0.387436816759262
198                     110                     114              105.656854       -0.15899741766234      -0.269782763402265      -0.574689734519502
199                     110                     114              102.828427       0.229052489316682        0.22980768082334      0.0138380935883014
200                     110                     114                     100      -0.240983398115291      -0.220233723950152        0.45681178724146
201                     112                     112              105.656854       0.151501175059361        0.21842214027999      -0.426136723614622