ITEM: TIMESTEP
0
ITEM: NUMBER OF ATOMS
422
ITEM: BOX BOUNDS ff ff ff
0.0000000000000000e+00 2.3200000000000000e+02
0.0000000000000000e+00 2.3200000000000000e+02
0.0000000000000000e+00 2.3200000000000000e+02
ITEM: ATOMS id xu yu zu fx fy fz
1        113.124301915032         115.96189053687        108.635223721193    -0.00451711631483147    7.42904183702835e-05     0.00885775284821202
2        118.825936294035        115.987677695598        108.655305453964     0.00138696577668258   -0.000872171044273086     0.00807709721696538
3        117.425840224647        116.011290343495         108.68034923073   -0.000345062747286371     0.00241767330229668      0.0109474145812253
4        114.620583823695        116.034463727682        108.706365784746     0.00574533172869253     0.00175434591962124     0.00801612679707303
5        116.739777484092        114.788427166487        108.695556316323     -0.0147365481915553      0.0155399595334412      0.0332376493391888
6        115.303458365519        114.776923983363        108.685485374651       0.022206646519581      0.0151500045685446      0.0328565148593803
7        115.224557920514        117.175238260874        108.609070055486      0.0288369143136479     -0.0132864658446364      0.0522525996819879
8        116.674575281248        117.200439686409        108.632839239827      -0.017492694077467    -0.00929984292253143      0.0396569691182989
9        114.534982460504        113.565671780922        108.674079539747      0.0296796861978637      -0.034490007126231       0.146947940962698
10        117.442628070126        113.533475991281        108.638928587395     -0.0522343441088176     -0.0391521895819005       0.162250353923348
11        114.463808544381        118.372290645501        108.607798993608      0.0352241880404222      0.0196992067542478       0.205897119159203
12        117.472890068058        118.441530771581        108.674083957402     -0.0471145437600167      0.0165701106465973        0.15016760941732
13        113.156788628633        113.591921956295        108.686331368398      -0.025582415487097     -0.0275548644709051       0.103374689583132
14        113.091229831894        118.373335786055        108.625635023781     -0.0352115559021315      0.0134474746768171       0.124267767793604
15        118.874901980543        113.592126047947        108.680787754375      0.0102226895727092     -0.0275081877164274       0.103359856216738
16        118.889807891283        118.454004590368        108.700556119787     0.00740415854209868      0.0126783800296353      0.0925507884772872
17        112.467212650692        117.234736756193        108.697270812553    -0.00835850980138598     0.00192491624417916      0.0187066902674265
18        112.431890457604        114.773941213928        108.659515398864    -0.00871395598985944     0.00757336162025855      0.0224113938025093
19         119.59317520006         114.82498111564        108.703408003368      0.0154745345440445     0.00580254888962031      0.0130806097078663
20        119.590862367042        117.248141634973        108.703528392014      0.0166059452077494     0.00301506269090643      0.0143130559257126
21        120.938284734824        114.807584798022          108.6400037122       0.131934208470863       0.124737446268137      0.0385126448774386
22        120.959897694766        117.165394562091        108.663960332515       0.129109178140491       -0.02347947235105      0.0280412081714502
23        110.995031465937        114.788864622269        108.631259792776     -0.0110770652848343       0.129598282559637       0.066742211252385
24         110.96906604773        117.099096006859        108.607638034585     -0.0102625866726035     -0.0235762948948392      0.0684933838695637
25        121.557566554214        115.962837171592        108.627694093475     -0.0590245689480392     -0.0249637723302076     0.00394079612666387
26         110.40574368682        115.999803091012        108.675907112348    -0.00918226060237381     -0.0285844395362884     -0.0117810920984941
27        121.626073430424        118.202799525527          108.6737313846      -0.170955542394342     -0.0413511080224063       0.178546884202958
28        121.625823126463        113.810342409458        108.669074839763      -0.179683406731495     -0.0780145845542198       0.171241454822524
29        110.310951602306        118.125762338875        108.607990851579      0.0222199526469651     -0.0580346129835624         0.1850383951461
30        110.386929332143        113.809533258612        108.679562341883      0.0302820778418291     -0.0771971005538627        0.12972367932669
31        112.553883488043        112.569471465894          108.6108706658      -0.015671740639691      0.0288792975734921      0.0170692827622249
32        112.592760502936        119.350140323546        108.656511002337     -0.0137919361275772      0.0146305479524632     0.00622497964677773
33        119.424656192592        112.666606394271         108.70119665964      0.0597942308759933      0.0258513615776281     0.00550058526183189
34        119.423176526908        119.406918580155        108.706480319766      0.0574595005069442      0.0144957309970639    0.000831159992044749
35        114.933061730048        112.539735721061        108.627629157181      0.0042357939904657      0.0148217607955332   -0.000232605875171443
36        114.989403432952        119.435700470411         108.69083232427      0.0038358677836494      0.0136655887846753    -0.00419979705461574
37        116.999655365137        112.552688350855        108.638517441116      0.0225729820839433       0.014865342870201   -0.000998455242506549
38        116.983479036376         119.37613506943        108.629202578845      0.0227903508427298      0.0113906769916926     -0.0053876083044793
39                     100                     100              105.656854       0.212092329917056       0.213919331235385      -0.975672128725316
40                     100                     100              102.828427       0.432084653350738       0.430484249161157   -0.000360386136126145
41                     100                     100                     100       0.212084216804475       0.213394712025334       0.976285511374346
42                     102                     102              105.656854      -0.344366753834323      -0.347481987736644      -0.277983194905865
43                     102                     102              102.828427     -0.0510123176604622     -0.0484028172084151    0.000648374734748485
44                     102                     102                     100      -0.344396095189685      -0.346409624300648       0.276915236620313
45                     104                     100              105.656854       0.095676156352867       0.959968487175164      -0.808929955995271
46                     104                     100              102.828427     -0.0636649438408225       0.726792923075509   -0.000243931298946653
47                     104                     100                     100      0.0960739744651527       0.959371965085459       0.809318710282147
48                     106                     102              105.656854      -0.148929419151572      -0.514707093551374      -0.381457635256078
49                     106                     102              102.828427        0.14205843552902      0.0663652615874977    0.000300315145643172
50                     106                     102                     100      -0.150007338862168      -0.513640718732643       0.381009241699473
51                     108                     100              105.656854       0.109451142864709        1.05986797215334      -0.801901376634169
52                     108                     100              102.828427      -0.111452149233859       0.640062489930126    0.000303677245655001
53                     108                     100                     100       0.110526246554351        1.05989599715532       0.801358047089704
54                     110                     102              105.656854      -0.143021294763816      -0.581444694859371      -0.373821111040151
55                     110                     102              102.828427       0.147815477761917       0.134467801854717    -0.00107075011730617
56                     110                     102                     100      -0.145442594083854      -0.582390377879917       0.375619058619513
57                     112                     100              105.656854       0.131680957549776        1.10812257860463      -0.810668661605325
58                     112                     100              102.828427      -0.135462094677759       0.589708560588766        0.00121815101219
59                     112                     100                     100        0.13283360775629         1.1096707705251       0.808618053835469
60                     114                     102              105.656854      -0.163914736754184      -0.618327260264785      -0.361366588824822
61                     114                     102              102.828427        0.16882443566831       0.174451706531506    -0.00273022359203356
62                     114                     102                     100      -0.165327950497106      -0.622440067153863       0.365843664220616
63                     116                     100              105.656854       0.166710999184727        1.14366382687642       -0.82121289458262
64                     116                     100              102.828427      -0.170878788025655       0.552492268325451     0.00169666054172682
65                     116                     100                     100       0.166670814733503        1.14610724659218        0.81837930707931
66                     118                     102              105.656854      -0.209734730460514      -0.650711363318652      -0.347958720191218
67                     118                     102              102.828427       0.214559161989118       0.207831278505886    -0.00266927172017017
68                     118                     102                     100      -0.208182247452159       -0.65471066652871       0.352349623924272
69                     120                     100              105.656854       0.223370755976445        1.18238841011597      -0.835218612500581
70                     120                     100              102.828427      -0.228780797981261       0.513055342945025     0.00116546420650552
71                     120                     100                     100       0.222172331402812        1.18384877047563       0.833246677268223
72                     122                     102              105.656854       -0.28895834978918       -0.68798890165331      -0.330340490740452
73                     122                     102              102.828427       0.293738536381542       0.244312054950349   -0.000948009117941715
74                     122                     102                     100      -0.286521254140237      -0.688729411356396       0.331961361245962
75                     124                     100              105.656854       0.326466057101298        1.23674096505447      -0.852077597223554
76                     124                     100              102.828427      -0.323104435742761       0.459488812215579    0.000238010856370998
77                     124                     100                     100       0.325398414045539        1.23667307676584       0.851635099815981
78                     126                     102              105.656854      -0.461775627263041      -0.727812638270074      -0.332064394838078
79                     126                     102              102.828427       0.397321221138414       0.281785020250464    0.000401158895790755
80                     126                     102                     100      -0.460750288306397      -0.726608778393278       0.331464386615241
81                     128                     100              105.656854        0.70831082422041         1.3407904837506      -0.754714241470308
82                     128                     100              102.828427      -0.280972856777181       0.396023869213129   -0.000293465977442223
83                     128                     100                     100       0.707939999930479        1.34013506690479       0.755182128839577
84                     130                     102              105.656854       -1.34061381117377      -0.708831512766547      -0.755444421560207
85                     130                     102              102.828427       -0.39583424357114       0.281089031352868    0.000706847816258344
86                     130                     102                     100       -1.34063240613554      -0.707698945124363       0.754283851418874
87                     100                     104              105.656854       0.958957234581022      0.0999746736458913      -0.808413818200779
88                     100                     104              102.828427        0.72779581511453     -0.0671696402878757    -0.00101134571199737
89                     100                     104                     100       0.958441509100514      0.0986809112036511       0.810096822052438
90                     102                     106              105.656854       -0.51353736417603      -0.156988487173542      -0.382794581282499
91                     102                     106              102.828427      0.0650096590372225       0.148093479246085     0.00207689118767748
92                     102                     106                     100      -0.512311936538227      -0.154064675779129       0.379433078686485
93                     104                     104              105.656854       0.246948420634084       0.252719310666497      -0.388508992680222
94                     104                     104              102.828427      -0.179763061395762      -0.184259197267387    -0.00122973571081117
95                     104                     104                     100       0.247178102496454       0.250355165314926        0.39047693225005
96                     106                     106              105.656854      -0.232618526508329      -0.244576635499976      -0.504624185835742
97                     106                     106              102.828427       0.224876201806693       0.233077176233918     0.00239923102303262
98                     106                     106                     100      -0.233886907530414      -0.238959525045021       0.500733936475497
99                     108                     104              105.656854       0.172708247455864       0.338132137600969      -0.375273876466186
100                     108                     104              102.828427      -0.176849815438358      -0.268379938512673   -8.88696869120454e-05
101                     108                     104                     100       0.175883005052522       0.336490676283729       0.375367089263272
102                     110                     106              105.656854      -0.180811526120108      -0.291844007454586      -0.489767293968269
103                     110                     106              102.828427       0.191523634695207       0.284860797658124    -0.00160869205221929
104                     110                     106                     100      -0.190563054288012      -0.291437808322346       0.492346798143895
105                     112                     104              105.656854        0.16664063756052       0.378437885513165      -0.391016985448621
106                     112                     104              102.828427      -0.173914224602223      -0.313839697340876     0.00333952507789028
107                     112                     104                     100       0.171611525636543       0.383070407570466       0.385565012840479
108                     114                     106              105.656854      -0.188096299071056       -0.30586595803394      -0.466519883422646
109                     114                     106              102.828427       0.197465943968915       0.310825521493342    -0.00909271343771034
110                     114                     106                     100      -0.195102154983793      -0.321883749291798       0.481970184624013
111                     116                     104              105.656854       0.198532600019017       0.404417292301999       -0.40647705845464
112                     116                     104              102.828427      -0.203656311488343      -0.343584706616582     0.00549067336025767
113                     116                     104                     100       0.198355263995836       0.413597025387775         0.3975243519865
114                     118                     106              105.656854      -0.242173022278555      -0.328859974874619      -0.450849874296932
115                     118                     106              102.828427       0.244065419851747       0.334093455018379     -0.0087977382699257
116                     118                     106                     100      -0.234517874268739      -0.344218991933989       0.465871772267163
117                     120                     104              105.656854       0.261142250950242       0.435701963022402      -0.421627274632679
118                     120                     104              102.828427      -0.265385670994256      -0.372724146094359     0.00312093974046289
119                     120                     104                     100       0.256029715938096       0.439914582276681       0.416476448623412
120                     122                     106              105.656854      -0.319479222623365      -0.363023217069719      -0.438315364481772
121                     122                     106              102.828427       0.320546164017635        0.35776642986284    -0.00111294734388213
122                     122                     106                     100      -0.309847220642319       -0.36169103435657       0.440205992503643
123                     124                     104              105.656854       0.368474542703213       0.464014317614105      -0.438495729913536
124                     124                     104              102.828427      -0.362810196067145      -0.397992410701839    -0.00030871498433353
125                     124                     104                     100       0.365396468432745       0.462026116463704       0.438898580034157
126                     126                     106              105.656854      -0.466259668576907      -0.369525223201373      -0.441698294103638
127                     126                     106              102.828427       0.401252223165296         0.3617373607836     0.00269908983691582
128                     126                     106                     100      -0.465272629035903      -0.363502697678011        0.43738993493527
129                     128                     104              105.656854       0.728035800828177       0.462533210788571      -0.330603061918312
130                     128                     104              102.828427      -0.282699136359102      -0.397189839755922    -0.00135584241836238
131                     128                     104                     100       0.727917890513018       0.460021187199601       0.332758330458407
132                     130                     106              105.656854        -1.2365669331771      -0.328489085733065      -0.853685434149261
133                     130                     106              102.828427      -0.458770286339182       0.324014518741676     0.00220238774250658
134                     130                     106                     100       -1.23794221049011      -0.325455461189304       0.850137750861778
135                     100                     108              105.656854        1.06277664706636       0.116650176972733      -0.799931952292039
136                     100                     108              102.828427       0.638415301933761      -0.116918266711473    -0.00241563038125848
137                     100                     108                     100        1.06049372236119       0.114243254160443       0.803876666828632
138                     102                     110              105.656854      -0.589463378915196      -0.155688402332744      -0.379115137246479
139                     102                     110              102.828427       0.138348526882886       0.156376054233782     0.00520481852642318
140                     102                     110                     100       -0.58356923892251      -0.150570280797145       0.370693756655626
141                     104                     108              105.656854       0.337682386651714       0.189326663585214      -0.371125176956729
142                     104                     108              102.828427      -0.266626590695351      -0.187588767209374    -0.00460544995844236
143                     104                     108                     100       0.334507682601841       0.182104125513059       0.378638594455911
144                     106                     110              105.656854      -0.296540900543138      -0.218212600810903      -0.505996888058797
145                     106                     110              102.828427       0.282409730011079       0.210109596008099      0.0105820211084499
146                     106                     110                     100       -0.28818451416504      -0.199345902019692        0.48578882675823
147                     108                     108              105.656854       0.220690814031253       0.249488513513965       -0.35915748432013
148                     108                     108              102.828427      -0.228222630497396      -0.243677127045224    -0.00422986627785586
149                     108                     108                     100       0.227722153863446       0.235589133511608       0.367624998494612
150                     110                     110              105.656854      -0.178022396942832      -0.253138070872404      -0.487488208841055
151                     110                     110              102.828427        0.21539986065473       0.242279754437041      0.0030170053221015
152                     110                     110                     100      -0.221547806815714      -0.232373010848688       0.476039743866095
153                     112                     108              105.656854       0.175670796726831       0.254053012604166      -0.394470910340079
154                     112                     108              102.828427      -0.198103693166421      -0.268392127601629     0.00924660015364018
155                     112                     108                     100       0.201216916136719       0.266987621605281       0.377392872574206
156                     114                     110              105.656854      -0.180659513905414      -0.182739107406833       -0.38272505807242
157                     114                     110              102.828427           0.20974364336        0.24602230166362     -0.0281009921674183
158                     114                     110                     100      -0.213607541175091       -0.24921409536083       0.470524583604022
159                     116                     108              105.656854       0.221478761777745       0.249454918104407      -0.425796312584731
160                     116                     108              102.828427      -0.226744547272756      -0.281472870445551       0.019551360995275
161                     116                     108                     100         0.2204934535469       0.285891247798048       0.388543674191006
162                     118                     110              105.656854      -0.286425546513153      -0.196933312463888      -0.369064332626112
163                     118                     110              102.828427       0.267179408384572       0.257774928826528     -0.0268943404489711
164                     118                     110                     100      -0.249738347419993      -0.260261977886978       0.452746975977382
165                     120                     108              105.656854       0.300100052187551       0.290207491465113      -0.428032350735403
166                     120                     108              102.828427      -0.290689153816612      -0.303890289260844     0.00823109963660413
167                     120                     108                     100       0.274201395854008       0.300824984140798       0.412705392104865
168                     122                     110              105.656854      -0.357113901971077      -0.290464066097937      -0.434215756593509
169                     122                     110              102.828427        0.33421186044031       0.277688606193348     0.00484165215310053
170                     122                     110                     100      -0.315359130608726      -0.266041121888421       0.418826084097198
171                     124                     108              105.656854       0.375461177194177       0.320601520851162      -0.430912202606133
172                     124                     108              102.828427      -0.368467349673672       -0.31627751387503    -0.00499727948505581
173                     124                     108                     100       0.369161819491437       0.305480979201845       0.440466631796537
174                     126                     110              105.656854      -0.437416664622378      -0.275067467569593      -0.435310836642877
175                     126                     110              102.828427        0.38058819387544       0.268211849576223      0.0113644621092594
176                     126                     110                     100      -0.447041485392205      -0.255366347352947        0.41395866507187
177                     128                     108              105.656854       0.688229173917957       0.293888065713669      -0.326240959270161
178                     128                     108              102.828427      -0.246767148532151      -0.295389490571676    -0.00490614901486171
179                     128                     108                     100       0.691816322256747       0.286377824676105       0.334174394992007
180                     130                     110              105.656854       -1.17941692934637      -0.228172644724415      -0.839218684624523
181                     130                     110              102.828427      -0.512853755075609       0.231201089332284     0.00541909175586557
182                     130                     110                     100         -1.185666993707      -0.222976025957161       0.830496221375047
183                     100                     112              105.656854         1.1181787372159       0.138284076142162      -0.806373254452875
184                     100                     112              102.828427       0.583567518729546      -0.140230647991822    -0.00437892151255097
185                     100                     112                     100        1.11264710596796       0.135879796574021       0.813458367885599
186                     102                     114              105.656854      -0.638813005586131      -0.170903192062601      -0.371558978049618
187                     102                     114              102.828427       0.184905465920742       0.173349362872406     0.00862415897131579
188                     102                     114                     100      -0.626512530366066      -0.167889462994569       0.357513113822219
189                     104                     112              105.656854       0.400458919399193       0.187714491396537      -0.374824015710155
190                     104                     112              102.828427      -0.321689971066202      -0.185852928133804     -0.0114667962547444
191                     104                     112                     100       0.384675958907735       0.177710804031478        0.39481378638729
192                     106                     114              105.656854      -0.353632843422019      -0.210365619771463      -0.516265807753308
193                     106                     114              102.828427       0.321283954352566        0.20867973613684       0.022566914785777
194                     106                     114                     100      -0.322347571824688      -0.200050838770218        0.46687806140516
195                     108                     112              105.656854       0.278086390640976       0.255087373831993      -0.312410909735589
196                     108                     112              102.828427      -0.261310912616044      -0.223381475492538     -0.0197820522907254
197                     108                     112                     100       0.261093782987892        0.21116503812617       0.388577312659203
198                     110                     114              105.656854      -0.156982003942267      -0.204021712364562      -0.728470105528275
199                     110                     114              102.828427       0.223696895908653       0.227450341578277      0.0135946388750667
200                     110                     114                     100      -0.239504405452513       -0.22060923743768       0.457140400067554
201                     112                     112              105.656854       0.100290075833725          0.227912598082      -0.440289153846284