ITEM: TIMESTEP
0
ITEM: NUMBER OF ATOMS
422
ITEM: BOX BOUNDS ff ff ff
0.0000000000000000e+00 2.3200000000000000e+02
0.0000000000000000e+00 2.3200000000000000e+02
0.0000000000000000e+00 2.3200000000000000e+02
ITEM: ATOMS id xu yu zu fx fy fz
1        113.149701798847        115.987290420685        108.660623605008        2637.53360409077        4293.89839141277       -437.122674415445
2        118.833128536727        115.994869938291        108.662497696656        1424.10092867863        1510.51296088788       -419.480576469323
3        117.443928238111        116.029378356959        108.698437244194       -2312.22730140193       -2943.04104408566         693.23158233703
4         114.57283462772        115.986714531707        108.658616588771         -1595.689836863       -5360.51135213815        569.140837632919
5         116.69623263097        114.744882313364          108.6520114632       -1157.65656076454        2409.48671292315        17.9204134948981
6         115.22520409295        114.698669710795        108.607231102083         8143.0086734483         11720.108225821       -1559.10258191082
7        115.224408588268        117.175088928628         108.60892072324        3655.57141121293         4426.5932894132       -455.939569913592
8         116.66645752718        117.192321932341        108.624721485758       -650.065345396621         3634.3600861954       -443.164729048446
9        114.555580254096        113.586269574513        108.694677333338       -10117.3661981954        4346.00261217451        2141.85381883045
10        117.454123588826         113.54497150998        108.650424106094        7663.40773939682        20267.1704336451        1.05006524362264
11        114.464063447285        118.372545548405        108.608053896512       -2816.39168845244       -11498.0062094352       -506.655688840027
12        117.483094133935        118.451734837458        108.684288023279       -3458.34533702087       -20352.3843945445        481.127973267448
13        113.161428789368         113.59656211703        108.690971529132        4491.20632498374        8734.08119098714         336.07016884644
14        113.077987495405        118.360093449565        108.612392687291        13921.5866123296       -4628.88319972746       -1332.94790050764
15         118.85555677181        113.572780839214        108.661442545642        -5615.6540285939         15426.012613403        625.349229842399
16        118.801558556251        118.365755255335        108.612306784755        2389.59510948856       -6694.85910811551       -1757.70160680512
17        112.459560795145        117.227084900646        108.689618957006       -7412.41208132511        -12392.451708442         1437.2606481073
18        112.472049063631        114.814099819955        108.699674004892       -5170.12273143857       -3201.35807645503        520.165501067301
19        119.578644351742        114.810450267322         108.68887715505       -4255.01334151977       -1526.86360858655        653.524408220928
20        119.570339505819         117.22761877375        108.683005530791       -1016.44740605597       -2658.13192661048        751.799002411343
21        120.935594185972         114.80489424917        108.637313163348       -3052.49050091261        12106.0750521393       -833.241039701184
22        120.947304351161        117.152801218486         108.65136698891       -6203.90403662932       -13961.2283728399        14.2623300155415
23        111.007755738656        114.801588894987        108.643984065495        5023.39367822426        6120.86841175648       -69.2703869247546
24        111.028421957932         117.15845191706        108.666993944787        8453.04425319909       -7341.28837424376       -527.578748211591
25        121.580391334724        115.985661952102        108.650518873985        5538.05477593797       -878.249581750891        47.8125016469476
26        110.426408091225        116.020467495418        108.696571516753       -6527.70666472608       -3768.03620913188        409.307340410252
27        121.592297457337         118.16902355244        108.639955411513        12074.1450317611        19019.6944861839       -213.654841488372
28          121.6160851005        113.800604383495          108.6593368138        11391.0061355993        -16809.616012252        368.436188600381
29        110.385397700177        118.200208436746        108.682436949449       -9485.80467869927         15365.457793981        227.665356188709
30        110.323804748109        113.746408674578        108.616437757849       -6916.77058572132       -10670.1561612634       -278.643832371889
31        112.608088968147        112.623676945997        108.665076145904       -8587.44400408162       -15098.2826974402        -401.84284282418
32         112.55421661114         119.31159643175        108.617967110541       -12421.2097919832        22566.2935132625        132.003086966029
33        119.351912244688        112.593862446367        108.628452711736        10104.4453559263       -19925.5818595958       -671.462787152442
34        119.362481936183         119.34622398943        108.645785729041        7636.26331356811        13346.6304957255        455.355208221792
35        114.957881828117        112.564555819129         108.65244925525        8106.10245312836       -20583.7169462874       -850.514679453069
36        114.935252609586        119.381549647045        108.636681500904        7842.01150130507        16790.9801455772        476.338554417535
37        117.009086566017        112.562119551735        108.647948641995        -11589.688967107       -25593.8380937997       -64.4853948079288
38        117.057990562522        119.450646595576        108.703714104991       -10132.0658153904        23802.2585212564        463.135665076561
39                     100                     100              105.656854                       0                       0                       0
40                     100                     100              102.828427                       0                       0                       0
41                     100                     100                     100                       0                       0                       0
42                     102                     102              105.656854                       0                       0                       0
43                     102                     102              102.828427                       0                       0                       0
44                     102                     102                     100                       0                       0                       0
45                     104                     100              105.656854                       0                       0                       0
46                     104                     100              102.828427                       0                       0                       0
47                     104                     100                     100                       0                       0                       0
48                     106                     102              105.656854                       0                       0                       0
49                     106                     102              102.828427                       0                       0                       0
50                     106                     102                     100                       0                       0                       0
51                     108                     100              105.656854                       0                       0                       0
52                     108                     100              102.828427                       0                       0                       0
53                     108                     100                     100                       0                       0                       0
54                     110                     102              105.656854                       0                       0                       0
55                     110                     102              102.828427                       0                       0                       0
56                     110                     102                     100                       0                       0                       0
57                     112                     100              105.656854                       0                       0                       0
58                     112                     100              102.828427                       0                       0                       0
59                     112                     100                     100                       0                       0                       0
60                     114                     102              105.656854                       0                       0                       0
61                     114                     102              102.828427                       0                       0                       0
62                     114                     102                     100                       0                       0                       0
63                     116                     100              105.656854                       0                       0                       0
64                     116                     100              102.828427                       0                       0                       0
65                     116                     100                     100                       0                       0                       0
66                     118                     102              105.656854                       0                       0                       0
67                     118                     102              102.828427                       0                       0                       0
68                     118                     102                     100                       0                       0                       0
69                     120                     100              105.656854                       0                       0                       0
70                     120                     100              102.828427                       0                       0                       0
71                     120                     100                     100                       0                       0                       0
72                     122                     102              105.656854                       0                       0                       0
73                     122                     102              102.828427                       0                       0                       0
74                     122                     102                     100                       0                       0                       0
75                     124                     100              105.656854                       0                       0                       0
76                     124                     100              102.828427                       0                       0                       0
77                     124                     100                     100                       0                       0                       0
78                     126                     102              105.656854                       0                       0                       0
79                     126                     102              102.828427                       0                       0                       0
80                     126                     102                     100                       0                       0                       0
81                     128                     100              105.656854                       0                       0                       0
82                     128                     100              102.828427                       0                       0                       0
83                     128                     100                     100                       0                       0                       0
84                     130                     102              105.656854                       0                       0                       0
85                     130                     102              102.828427                       0                       0                       0
86                     130                     102                     100                       0                       0                       0
87                     100                     104              105.656854                       0                       0                       0
88                     100                     104              102.828427                       0                       0                       0
89                     100                     104                     100                       0                       0                       0
90                     102                     106              105.656854                       0                       0                       0
91                     102                     106              102.828427                       0                       0                       0
92                     102                     106                     100                       0                       0                       0
93                     104                     104              105.656854                       0                       0                       0
94                     104                     104              102.828427                       0                       0                       0
95                     104                     104                     100                       0                       0                       0
96                     106                     106              105.656854                       0                       0                       0
97                     106                     106              102.828427                       0                       0                       0
98                     106                     106                     100                       0                       0                       0
99                     108                     104              105.656854                       0                       0                       0
100                     108                     104              102.828427                       0                       0                       0
101                     108                     104                     100                       0                       0                       0
102                     110                     106              105.656854                       0                       0                       0
103                     110                     106              102.828427                       0                       0                       0
104                     110                     106                     100                       0                       0                       0
105                     112                     104              105.656854                       0                       0                       0
106                     112                     104              102.828427                       0                       0                       0
107                     112                     104                     100                       0                       0                       0
108                     114                     106              105.656854                       0                       0                       0
109                     114                     106              102.828427                       0                       0                       0
110                     114                     106                     100                       0                       0                       0
111                     116                     104              105.656854                       0                       0                       0
112                     116                     104              102.828427                       0                       0                       0
113                     116                     104                     100                       0                       0                       0
114                     118                     106              105.656854                       0                       0                       0
115                     118                     106              102.828427                       0                       0                       0
116                     118                     106                     100                       0                       0                       0
117                     120                     104              105.656854                       0                       0                       0
118                     120                     104              102.828427                       0                       0                       0
119                     120                     104                     100                       0                       0                       0
120                     122                     106              105.656854                       0                       0                       0
121                     122                     106              102.828427                       0                       0                       0
122                     122                     106                     100                       0                       0                       0
123                     124                     104              105.656854                       0                       0                       0
124                     124                     104              102.828427                       0                       0                       0
125                     124                     104                     100                       0                       0                       0
126                     126                     106              105.656854                       0                       0                       0
127                     126                     106              102.828427                       0                       0                       0
128                     126                     106                     100                       0                       0                       0
129                     128                     104              105.656854                       0                       0                       0
130                     128                     104              102.828427                       0                       0                       0
131                     128                     104                     100                       0                       0                       0
132                     130                     106              105.656854                       0                       0                       0
133                     130                     106              102.828427                       0                       0                       0
134                     130                     106                     100                       0                       0                       0
135                     100                     108              105.656854                       0                       0                       0
136                     100                     108              102.828427                       0                       0                       0
137                     100                     108                     100                       0                       0                       0
138                     102                     110              105.656854                       0                       0                       0
139                     102                     110              102.828427                       0                       0                       0
140                     102                     110                     100                       0                       0                       0
141                     104                     108              105.656854                       0                       0                       0
142                     104                     108              102.828427                       0                       0                       0
143                     104                     108                     100                       0                       0                       0
144                     106                     110              105.656854                       0                       0                       0
145                     106                     110              102.828427                       0                       0                       0
146                     106                     110                     100                       0                       0                       0
147                     108                     108              105.656854                       0                       0                       0
148                     108                     108              102.828427                       0                       0                       0
149                     108                     108                     100                       0                       0                       0
150                     110                     110              105.656854                       0                       0                       0
151                     110                     110              102.828427                       0                       0                       0
152                     110                     110                     100                       0                       0                       0
153                     112                     108              105.656854                       0                       0                       0
154                     112                     108              102.828427                       0                       0                       0
155                     112                     108                     100                       0                       0                       0
156                     114                     110              105.656854                       0                       0                       0
157                     114                     110              102.828427                       0                       0                       0
158                     114                     110                     100                       0                       0                       0
159                     116                     108              105.656854                       0                       0                       0
160                     116                     108              102.828427                       0                       0                       0
161                     116                     108                     100                       0                       0                       0
162                     118                     110              105.656854                       0                       0                       0
163                     118                     110              102.828427                       0                       0                       0
164                     118                     110                     100                       0                       0                       0
165                     120                     108              105.656854                       0                       0                       0
166                     120                     108              102.828427                       0                       0                       0
167                     120                     108                     100                       0                       0                       0
168                     122                     110              105.656854                       0                       0                       0
169                     122                     110              102.828427                       0                       0                       0
170                     122                     110                     100                       0                       0                       0
171                     124                     108              105.656854                       0                       0                       0
172                     124                     108              102.828427                       0                       0                       0
173                     124                     108                     100                       0                       0                       0
174                     126                     110              105.656854                       0                       0                       0
175                     126                     110              102.828427                       0                       0                       0
176                     126                     110                     100                       0                       0                       0
177                     128                     108              105.656854                       0                       0                       0
178                     128                     108              102.828427                       0                       0                       0
179                     128                     108                     100                       0                       0                       0
180                     130                     110              105.656854                       0                       0                       0
181                     130                     110              102.828427                       0                       0                       0
182                     130                     110                     100                       0                       0                       0
183                     100                     112              105.656854                       0                       0                       0
184                     100                     112              102.828427                       0                       0                       0
185                     100                     112                     100                       0                       0                       0
186                     102                     114              105.656854                       0                       0                       0
187                     102                     114              102.828427                       0                       0                       0
188                     102                     114                     100                       0                       0                       0
189                     104                     112              105.656854                       0                       0                       0
190                     104                     112              102.828427                       0                       0                       0
191                     104                     112                     100                       0                       0                       0
192                     106                     114              105.656854                       0                       0                       0
193                     106                     114              102.828427                       0                       0                       0
194                     106                     114                     100                       0                       0                       0
195                     108                     112              105.656854                       0                       0                       0
196                     108                     112              102.828427                       0                       0                       0
197                     108                     112                     100                       0                       0                       0
198                     110                     114              105.656854                       0                       0                       0
199                     110                     114              102.828427                       0                       0                       0
200                     110                     114                     100                       0                       0                       0
201                     112                     112              105.656854                       0                       0                       0