ITEM: TIMESTEP
0
ITEM: NUMBER OF ATOMS
422
ITEM: BOX BOUNDS pp pp pp
0.0000000000000000e+00 3.2000000000000000e+01
0.0000000000000000e+00 3.2000000000000000e+01
0.0000000000000000e+00 3.2000000000000000e+01
ITEM: ATOMS id xu yu zu fx fy fz
1        13.1459321938386        15.9835208156773                11.25685    3.53877633984161e-05   -1.03145943385391e-06    -0.00262853860285881
2        18.8274848400711        15.9892262416344                11.25685   -3.50107710099329e-05    -6.7633209760141e-07    -0.00263017828229796
3         17.402344993917         15.987795112765                11.25685    2.93121167963386e-05   -7.83698111189882e-07    -0.00264333831674084
4         14.571072038949        15.9849519429358                11.25685   -2.83901073689402e-05   -9.68449174673241e-07     -0.0026446930381014
5        16.7010751677692        14.7497248501637                11.25685    3.59142251858274e-05   -3.49926421447038e-05    -0.00265954278010942
6        15.2748269908674        14.7482926087119                11.25685   -3.65816713528827e-05   -3.50484859179905e-05    -0.00266116445814296
7        15.2723418650276        17.2230222053877                11.25685   -3.65394300755604e-05    3.56824937607689e-05    -0.00265954107294904
8        16.6985900414216        17.2244544465825                11.25685    3.57481887511333e-05    3.55443757080965e-05    -0.00265778572849554
9        14.5177569207574        13.5484462411751                11.25685   -2.99804816919214e-05    2.67421966953482e-05    -0.00272790119116335
10        17.4605534827313        13.5514014038861                11.25685    3.09363397187267e-05     2.6551926454051e-05    -0.00272688425138198
11        14.5128635507729         18.421345651893                11.25685   -2.98216886357286e-05   -2.52426918497389e-05    -0.00272952899395025
12        17.4556601106552        18.4243008141789                11.25685    3.11965200793091e-05   -2.53300945209117e-05    -0.00272772030861507
13        13.1273112602358        13.5624445878976                11.25685    4.05086949569299e-05    2.51840204688146e-05    -0.00270608009461924
14        13.1224488081137        18.4045547622743                11.25685    4.06587578067232e-05   -2.35471936476722e-05    -0.00270714421769919
15         18.850968226168        13.5681922935721                11.25685   -4.02191387177531e-05    2.49645583811476e-05     -0.0027078674148465
16        18.8461057714963        18.4103024705805                11.25685   -4.02005447476201e-05   -2.39156793540846e-05    -0.00270912984590699
17         12.426795838139        17.1943199436399                11.25685    2.48873648908032e-05    3.52415091475112e-05    -0.00264121265243999
18        12.4292290587396        14.7712798150634                11.25685    2.50973551076943e-05   -3.45953064967369e-05    -0.00264343367727525
19        19.5466211966922        14.7784271122721                11.25685   -2.62497823305334e-05   -3.48037272587297e-05    -0.00264408686817079
20        19.5441879750283        17.2014672429596                11.25685   -2.63102828822843e-05     3.5192685716495e-05     -0.0026429609873655
21        20.9551350226241        14.8244350858224                11.25685    3.98445453457787e-05   -3.74905756687956e-05    -0.00267190370943928
22        20.9527913622507        17.1582882295758                11.25685    3.97595409658352e-05    3.77553978530331e-05    -0.00267059853202098
23        11.0206256731611        14.8144588294926                11.25685   -3.99630209391258e-05   -3.74215140915044e-05     -0.0026742566062437
24        11.0182820131454        17.1483119722736                11.25685   -3.98085386029363e-05    3.80262495502515e-05    -0.00267195499669772
25        21.5867264607395        15.9919970781177                11.25685     1.3240894126024e-05   -3.19390359090502e-07     -0.0015526369847544
26        10.3866905744716        15.9807499786644                11.25685   -1.25013362156768e-05   -7.69599593498111e-07    -0.00155326706675617
27         21.609196045824        18.1859221409264                11.25685    1.48006501024684e-05   -7.31911925723351e-06    -0.00161121842917117
28        21.6136022867001        13.7981215696947                11.25685    1.46466202081363e-05    7.92938783080522e-06    -0.00161111471316092
29        10.3598147507275        18.1746254872963                11.25685    -1.3765966847989e-05   -6.90018961382042e-06    -0.00161217533715335
30        10.3642209902605        13.7868249167297                11.25685   -1.38969579748486e-05    8.36916498753661e-06    -0.00161152555915958
31        12.5998668222426        12.6154548000933                11.25685    1.04320114044076e-05    1.05939495911002e-05   -0.000833278689894267
32        12.5931035005993        19.3504833212092                11.25685    1.03959694763692e-05   -1.09607173978993e-05    -0.00083383588935775
33        19.3803135329519        12.6222637346313                11.25685   -1.06721982328666e-05    1.06980265069124e-05   -0.000833807873157136
34        19.3735502071424         19.357292260389                11.25685   -1.07768449021413e-05    -1.0933585758843e-05   -0.000834359768967047
35        14.9622865728669        12.5689605638796                11.25685   -1.28037634912519e-05    1.06641464251212e-05    -0.00084229377576427
36         14.955425108682        19.4017221461408                11.25685   -1.28404992254942e-05   -1.10584160971677e-05    -0.00084306373813984
37        17.0179919240215        12.5710249097393                11.25685    1.28241404481772e-05    1.06616287657989e-05    -0.00084186122047701
38         17.011130457531        19.4037864905846                11.25685    1.28665920588539e-05   -1.09791969488222e-05   -0.000842213080581203
39                       0                       0                5.656854                       0                       0                       0
40                       0                       0                2.828427                       0                       0                       0
41                       0                       0                       0                       0                       0                       0
42                       2                       2                5.656854                       0                       0                       0
43                       2                       2                2.828427                       0                       0                       0
44                       2                       2                       0                       0                       0                       0
45                       4                       0                5.656854                       0                       0                       0
46                       4                       0                2.828427                       0                       0                       0
47                       4                       0                       0                       0                       0                       0
48                       6                       2                5.656854    4.29315379763785e-09    8.80270977975627e-09    4.26956652215853e-09
49                       6                       2                2.828427                       0                       0                       0
50                       6                       2                       0                       0                       0                       0
51                       8                       0                5.656854    7.94104025006201e-11     4.3973629053073e-12    9.67458585438046e-11
52                       8                       0                2.828427                       0                       0                       0
53                       8                       0                       0                       0                       0                       0
54                      10                       2                5.656854    1.85729466688676e-08     7.2112499729971e-08    3.55622749355437e-08
55                      10                       2                2.828427    2.74608112271461e-10    1.07069635753114e-09    8.05480470127356e-10
56                      10                       2                       0                       0                       0                       0
57                      12                       0                5.656854    3.31629778208649e-10    1.64704416515474e-10    1.06110433522979e-09
58                      12                       0                2.828427                       0                       0                       0
59                      12                       0                       0                       0                       0                       0
60                      14                       2                5.656854    1.09299193437652e-08    1.70676686385258e-07    8.53319990984187e-08
61                      14                       2                2.828427    1.42216604685617e-10    2.49675297050949e-09    1.90038044832721e-09
62                      14                       2                       0                       0                       0                       0
63                      16                       0                5.656854   -2.08903432927754e-12    7.46863260040408e-11    1.74546696301619e-09
64                      16                       0                2.828427                       0                       0                       0
65                      16                       0                       0                       0                       0                       0
66                      18                       2                5.656854   -1.12037277653042e-08     1.6978667990476e-07    8.48682571922147e-08
67                      18                       2                2.828427   -1.46361881186578e-10    2.48525244160867e-09    1.89117460146751e-09
68                      18                       2                       0                       0                       0                       0
69                      20                       0                5.656854   -3.20834111618052e-10    4.01496732544425e-11    1.10043486823217e-09
70                      20                       0                2.828427                       0                       0                       0
71                      20                       0                       0                       0                       0                       0
72                      22                       2                5.656854   -1.84214184414593e-08    7.10089888095951e-08    3.50001638003942e-08
73                      22                       2                2.828427   -2.10141489495175e-10    8.96713508614421e-10    6.77776501094311e-10
74                      22                       2                       0                       0                       0                       0
75                      24                       0                5.656854   -7.88122134177607e-11    3.18166064027808e-12    9.54675765817697e-11
76                      24                       0                2.828427                       0                       0                       0
77                      24                       0                       0                       0                       0                       0
78                      26                       2                5.656854   -4.20511272281078e-09    8.59187730759898e-09    4.16446748360583e-09
79                      26                       2                2.828427                       0                       0                       0
80                      26                       2                       0                       0                       0                       0
81                      28                       0                5.656854                       0                       0                       0
82                      28                       0                2.828427                       0                       0                       0
83                      28                       0                       0                       0                       0                       0
84                      30                       2                5.656854                       0                       0                       0
85                      30                       2                2.828427                       0                       0                       0
86                      30                       2                       0                       0                       0                       0
87                       0                       4                5.656854                       0                       0                       0
88                       0                       4                2.828427                       0                       0                       0
89                       0                       4                       0                       0                       0                       0
90                       2                       6                5.656854     2.4642887937352e-08    2.23455032611186e-08     1.5532968536036e-08
91                       2                       6                2.828427    2.36246514820009e-10    2.19938025338294e-10    2.38059893622776e-10
92                       2                       6                       0                       0                       0                       0
93                       4                       4                5.656854    2.82224712261297e-09    3.87282944722271e-09    2.19663105911551e-09
94                       4                       4                2.828427    1.03284196618167e-09     1.4343024460364e-09    1.26892451157154e-09
95                       4                       4                       0                       0                       0                       0
96                       6                       6                5.656854    6.21058204114881e-07    9.07762120069264e-07    6.42190433088782e-07
97                       6                       6                2.828427    8.00130881099396e-09    1.15697389956745e-08    1.22540879248252e-08
98                       6                       6                       0    8.28329190539667e-10     1.2507294535079e-09    1.88264865840958e-09
99                       8                       4                5.656854    2.75388918069929e-08    6.41318646841555e-08    3.72939319130109e-08
100                       8                       4                2.828427    1.26559312034729e-08    2.98296087251179e-08    2.60676622811151e-08
101                       8                       4                       0    2.32906688109085e-11    4.36229378281205e-11    5.69972078183452e-11
102                      10                       6                5.656854    3.13541001228746e-06    9.20473217844231e-06    6.80665618458484e-06
103                      10                       6                2.828427    3.11567666330241e-08    8.94463610437828e-08    9.78799705618812e-08
104                      10                       6                       0    5.00289498908641e-09    1.47408209394462e-08    2.18224985314102e-08
105                      12                       4                5.656854    4.96324118688295e-08    2.90044792063703e-07    1.73564388288661e-07
106                      12                       4                2.828427    2.11416504079417e-08    1.20192644010934e-07    1.07271012624245e-07
107                      12                       4                       0    9.69147484739211e-11    5.37000835295737e-10    6.61693690777394e-10
108                      14                       6                5.656854    1.73314713654824e-06    2.33391763896133e-05    1.77979367147843e-05
109                      14                       6                2.828427    1.70408388675559e-08    2.02796343120383e-07    2.27933555261416e-07
110                      14                       6                       0    2.72889401476433e-09    3.26442947335241e-08    4.92025314111123e-08
111                      16                       4                5.656854   -4.45623709345108e-10    4.26246920726537e-07    2.57594493725064e-07
112                      16                       4                2.828427   -1.82203215920469e-10    1.73326953895322e-07    1.55955236449219e-07
113                      16                       4                       0   -8.23281693629224e-13    7.55793338327412e-10    9.45481688274195e-10
114                      18                       6                5.656854   -1.77820099443419e-06    2.32187566287838e-05    1.76990098702025e-05
115                      18                       6                2.828427   -1.74390261159338e-08    2.01919568616143e-07    2.26866670397496e-07
116                      18                       6                       0   -2.79741511658039e-09    3.25293475483724e-08    4.90109458529212e-08
117                      20                       4                5.656854   -4.97157342984351e-08    2.86944066433198e-07    1.71622115740582e-07
118                      20                       4                2.828427      -2.12006350377e-08    1.19082258584813e-07    1.06229289820949e-07
119                      20                       4                       0   -9.73178978976815e-11    5.32823415108961e-10    6.56217396411303e-10
120                      22                       6                5.656854    -3.1058826727466e-06    9.05371934974273e-06    6.68901040844367e-06
121                      22                       6                2.828427   -3.08678139934583e-08    8.80598438886614e-08    9.63369740704871e-08
122                      22                       6                       0    -4.9822101563801e-09    1.45744327783517e-08      2.155724672037e-08
123                      24                       4                5.656854   -2.70948034152239e-08    6.27956359885165e-08    3.64896194778389e-08
124                      24                       4                2.828427   -1.24840898829803e-08    2.92843094948352e-08    2.55719435260748e-08
125                      24                       4                       0   -2.30249801919166e-11    4.29742263063626e-11    5.61052682086004e-11
126                      26                       6                5.656854   -6.06775823611612e-07    8.83975882709462e-07    6.24705955018726e-07
127                      26                       6                2.828427   -7.84528567533025e-09    1.13079209710344e-08    1.19647236792429e-08
128                      26                       6                       0   -8.15674167705533e-10    1.22774880149364e-09    1.84563645329703e-09
129                      28                       4                5.656854   -2.70157469000364e-09    3.72563480274211e-09    2.10813459058545e-09
130                      28                       4                2.828427   -1.00894058735972e-09    1.39786780317278e-09    1.23543898845148e-09
131                      28                       4                       0                       0                       0                       0
132                      30                       6                5.656854   -2.38879140629598e-08     2.1627832920271e-08     1.5016928112592e-08
133                      30                       6                2.828427    -2.2981346983682e-10    2.13692867594249e-10    2.30965093846034e-10
134                      30                       6                       0                       0                       0                       0
135                       0                       8                5.656854    8.64478385397549e-11    2.97983079251779e-09    2.68339401499132e-09
136                       0                       8                2.828427    2.76462842569462e-11    1.04004748610984e-09    1.51335979877436e-09
137                       0                       8                       0                       0                       0                       0
138                       2                      10                5.656854    6.25377296398928e-07    3.21481000720665e-07    4.02700428488392e-07
139                       2                      10                2.828427    8.29516583200261e-09    4.27421972346189e-09     7.9252671687202e-09
140                       2                      10                       0    8.01924604252126e-10    3.63064064932843e-10    1.07925711095952e-09
141                       4                       8                5.656854    1.83333443231065e-07    1.62374612507488e-07    1.47190265152055e-07
142                       4                       8                2.828427    7.22454961581928e-08    6.36479264489613e-08    8.59230766111889e-08
143                       4                       8                       0    3.44269228119868e-10    3.03529565052716e-10    5.70385333024611e-10
144                       6                      10                5.656854    2.88469418821423e-05    2.44762653193586e-05    3.21416010923326e-05
145                       6                      10                2.828427    2.06236983941918e-07    1.73400510632196e-07    3.31229242849471e-07
146                       6                      10                       0    3.08914867564116e-08    2.59843953694012e-08    6.48318553597084e-08
147                       8                       8                5.656854    2.70062920308574e-06    4.40846891790643e-06     4.1726434747167e-06
148                       8                       8                2.828427    6.89409258606159e-07    1.08798573571699e-06    1.51705836707013e-06
149                       8                       8                       0    3.22839151837687e-09    5.09749646672174e-09    9.44992826304604e-09
150                      10                      10                5.656854     0.00018134445402585    0.000349545985016876    0.000495221465806773
151                      10                      10                2.828427    8.42666749764024e-07    1.53010358087926e-06    3.10162234417393e-06
152                      10                      10                       0    9.75821618204356e-08    1.69750283078065e-07    4.40618977740356e-07
153                      12                       8                5.656854    5.36596279794614e-06    2.37853713958757e-05    2.40665481914184e-05
154                      12                       8                2.828427    1.07799576561051e-06    4.49139336667478e-06    6.58692749279026e-06
155                      12                       8                       0    4.59481604418933e-09    1.84399285528116e-08    3.52401403192323e-08
156                      14                      10                5.656854    7.07334237602056e-05    0.000843941135343641     0.00130122705162088
157                      14                      10                2.828427    3.63222806417775e-07    3.23697747850674e-06    6.97278722748366e-06
158                      14                      10                       0    4.48566510117657e-08    3.33664335522321e-07    9.04761570399596e-07
159                      16                       8                5.656854   -3.91284061289592e-08    3.38268787528068e-05    3.50119394202534e-05
160                      16                       8                2.828427   -7.60259747624202e-09    6.22043221591564e-06    9.30661546605531e-06
161                      16                       8                       0   -3.23773664318971e-11    2.52431672489488e-08     4.8997732328005e-08
162                      18                      10                5.656854   -7.30887270394799e-05    0.000841068993729179     0.00129562185749397
163                      18                      10                2.828427   -3.72138307982492e-07    3.22770588907759e-06    6.94766636557507e-06
164                      18                      10                       0    -4.5797900620147e-08    3.32828044702825e-07    9.01930303438164e-07
165                      20                       8                5.656854   -5.37792227315992e-06    2.35403326631816e-05    2.37942867829726e-05
166                      20                       8                2.828427   -1.08170845462904e-06    4.45437257851967e-06      6.526865825741e-06
167                      20                       8                       0   -4.61638591512687e-09    1.83155963134652e-08    3.49737573733133e-08
168                      22                      10                5.656854   -0.000179843362635919     0.00034433168400856    0.000486887601685798
169                      22                      10                2.828427   -8.38120443236761e-07    1.51212549183701e-06    3.06031780076897e-06
170                      22                      10                       0   -9.72384729094093e-08    1.68105781409767e-07    4.35756832623024e-07
171                      24                       8                5.656854   -2.65322731859299e-06    4.31129492542571e-06    4.07500730117657e-06
172                      24                       8                2.828427   -6.79911357824599e-07    1.06831751237676e-06    1.48780728613159e-06
173                      24                       8                       0   -3.19477119257749e-09    5.02216047272295e-09    9.29880697532928e-09
174                      26                      10                5.656854   -2.81427031337824e-05    2.38171279651761e-05     3.1214562809922e-05
175                      26                      10                2.828427   -2.02242468481949e-07    1.69598275696217e-07    3.23423699701794e-07
176                      26                      10                       0   -3.04136142895209e-08    2.55143944027235e-08    6.35592060542143e-08
177                      28                       8                5.656854   -1.78094948468692e-07    1.57421750012414e-07     1.4249967419216e-07
178                      28                       8                2.828427   -7.04904274761506e-08    6.19771583297942e-08    8.35581463541685e-08
179                      28                       8                       0   -3.37427852619525e-10    2.96983355297826e-10    5.57186021776027e-10
180                      30                      10                5.656854   -6.05064623602313e-07    3.10969829812038e-07    3.88870249296354e-07
181                      30                      10                2.828427   -8.06510500341722e-09     4.1512019512908e-09     7.6846745333097e-09
182                      30                      10                       0   -7.84455674155852e-10    3.55272683020468e-10    1.05295505382688e-09
183                       0                      12                5.656854    9.07289497876165e-10    1.42076251205745e-08    2.73855099475359e-08
184                       0                      12                2.828427    3.87225999193871e-10     7.1921004014971e-09    2.00215545469452e-08
185                       0                      12                       0                       0                       0                       0
186                       2                      14                5.656854    3.18150297465563e-06    4.81062014594253e-07    2.04856810852182e-06
187                       2                      14                2.828427    3.61234885098933e-08    5.75014386376793e-09    3.46053595836634e-08
188                       2                      14                       0    6.54312007368522e-09    1.13456338245215e-09    8.53642622054111e-09
189                       4                      12                5.656854    2.87355796555431e-06    1.13206803212923e-06    2.35733269951377e-06
190                       4                      12                2.828427    7.67387582338613e-07    3.12942337159191e-07    9.27238965550036e-07
191                       4                      12                       0    3.83326394191857e-09    1.61137002515247e-09    6.18047001209123e-09
192                       6                      14                5.656854    0.000219491310843688    5.09889215337387e-05    0.000250387018294153
193                       6                      14                2.828427    1.08178107026075e-06    2.73665066453754e-07    1.78017547946133e-06
194                       6                      14                       0    1.28581645759024e-07    3.39017383533756e-08     2.7222364319696e-07
195                       8                      12                5.656854    6.81246061259326e-05    5.29234870522222e-05    0.000119847009201358
196                       8                      12                2.828427    8.82196946890156e-06    6.75211671167208e-06    2.12488112456764e-05
197                       8                      12                       0    2.92436360948075e-08    2.21369226753674e-08    8.79245131915779e-08
198                      10                      14                5.656854     0.00140542270872976    0.000854490088887213     0.00478727735787362
199                      10                      14                2.828427    4.23227442940776e-06     2.5073526949958e-06    1.79215594646663e-05
200                      10                      14                       0    3.75743746044824e-07    2.15508647685785e-07    1.85216864089813e-06
201                      12                      12                5.656854    0.000106826837843558    0.000271008897890958    0.000706779315854567