ITEM: TIMESTEP
0
ITEM: NUMBER OF ATOMS
422
ITEM: BOX BOUNDS ff ff ff
0.0000000000000000e+00 2.3200000000000000e+02
0.0000000000000000e+00 2.3200000000000000e+02
0.0000000000000000e+00 2.3200000000000000e+02
ITEM: ATOMS id xu yu zu fx fy fz
1        114.845932193839        115.983520815677              108.656854     0.00978354958970059   -0.000761736711138576     0.00727640067409179
2        120.527484840071        115.989226241634              108.656854    -0.00973116661517281    -0.00111193573894545    -0.00317331873433741
3        119.102344993917        115.987795112765              108.656854     0.00617945044039836     0.00307336482169073     0.00523970466696663
4        116.271072038949        115.984951942936              108.656854     0.00218997993150514     0.00297509599549921    0.000294633732759074
5        118.401075167769        114.749724850164              108.656854      0.0216110560954823      0.0389461093155615       0.119780722946763
6        116.974826990867        114.748292608712              108.656854     -0.0214308684539564      0.0232155839480343      0.0634312927092081
7        116.972341865028        117.223022205388              108.656854     -0.0207071568962838     -0.0156350977089647      0.0608396711951984
8        118.398590041422        117.224454446583              108.656854       0.020924175217376     -0.0317274622920483       0.116275764368189
9        116.217756920757        113.548446241175              108.656854     -0.0167931388947771     -0.0163019609358737      0.0175805235609681
10        119.160553482731        113.551401403886              108.656854      0.0256032259548371     -0.0241438620435212      0.0726355785292638
11        116.212863550773        118.421345651893              108.656854     -0.0163954493497669    -0.00272318346847545      0.0198761760014074
12        119.155660110655        118.424300814179              108.656854      0.0268542031221597     0.00555585678936367      0.0762295139032655
13        114.827311260236        113.562444587898              108.656854       0.056393788469404     -0.0312068310107961       0.116613978113366
14        114.822448808114        118.404554762274              108.656854      0.0570901659557801       0.014181231162599       0.121216986102785
15        120.550968226168        113.568192293572              108.656854     -0.0592298302274397     -0.0197129181660219      0.0415088523081714
16        120.546105771496         118.41030247058              108.656854     -0.0585692001810159     0.00432551029452642      0.0431664080199115
17        114.126795838139         117.19431994364              108.656854     0.00949939316676508     -0.0298303284328898       0.124095343541738
18         114.12922905874        114.771279815063              108.656854     0.00984374064146436      0.0390190065656359       0.129344300418357
19        121.246621196692        114.778427112272              108.656854     -0.0180627822980951      0.0269614140720991      0.0855860089355517
20        121.244187975028         117.20146724296              108.656854      -0.017782103163482     -0.0182167203547302      0.0830110842864913
21        122.655135022624        114.824435085822              108.656854        0.11343341495143       0.133259024583556       0.041155030604815
22        122.652791362251        117.158288229576              108.656854       0.110033917861687     -0.0367233519409796      0.0360628041563745
23        112.720625673161        114.814458829493              108.656854      0.0130546759014589       0.120488305685766        0.04864245603764
24        112.718282013145        117.148311972274              108.656854      0.0145750687448312     -0.0122206072606093      0.0441051297961185
25         123.28672646074        115.991997078118              108.656854     -0.0245836935260988      -0.025096484542236     -0.0262202949201325
26        112.086690574472        115.980749978664              108.656854     -0.0244637180601376     -0.0281828649216226     -0.0567333259049701
27        123.309196045824        118.185922140926              108.656854     -0.0839349729345451     -0.0448267097213919      0.0766003021414819
28          123.3136022867        113.798121569695              108.656854     -0.0920949282711862     -0.0734443001714584      0.0658038464757865
29        112.059814750727        118.174625487296              108.656854     -0.0126647045270355     -0.0596028646249339    -0.00191013181388001
30         112.06422099026         113.78682491673              108.656854     -0.0114567242436602     -0.0761703824692991     -0.0142396753501323
31        114.299866822243        112.615454800093              108.656854     -0.0348261150130817      0.0241081181438282    -0.00710229237727821
32        114.293103500599        119.350483321209              108.656854     -0.0347685334380737      0.0182451001479338     -0.0130607662065472
33        121.080313532952        112.622263734631              108.656854       0.087174651175885      0.0254977970348458    -0.00427994915639081
34        121.073550207142        119.357292260389              108.656854      0.0842377008810491       0.014073954529409    -0.00960952863665531
35        116.662286572867         112.56896056388              108.656854      0.0226134646064364      0.0155555763984731     0.00275460254052792
36        116.655425108682        119.401722146141              108.656854      0.0217915867723314       0.011829884539123    -0.00114862957835061
37        118.717991924022        112.571024909739              108.656854     0.00505337059591092      0.0140987920294198    -0.00543935383147415
38        118.711130457531        119.403786490585              108.656854     0.00388760998409446      0.0128044029001257    -0.00921279624346966
39                     100                     100              105.656854       0.212450720572516       0.213893783577596      -0.975700646432376
40                     100                     100              102.828427       0.431758202267368       0.430468613099499    -0.00035755169753041
41                     100                     100                     100       0.212356880409708       0.213442278418439       0.976315629913659
42                     102                     102              105.656854      -0.345037321638786      -0.347419017967205      -0.277932713794211
43                     102                     102              102.828427      -0.050426212871196     -0.0483699048133214    0.000655416885023539
44                     102                     102                     100      -0.344853342384938      -0.346503661093022       0.276839981087871
45                     104                     100              105.656854      0.0962825156681104       0.960295196236243      -0.808895655673311
46                     104                     100              102.828427     -0.0641639645476544       0.726476600805243   -0.000360077828153576
47                     104                     100                     100      0.0964377456293661       0.959645220296302       0.809485861901906
48                     106                     102              105.656854      -0.150102480357415      -0.515475243272502      -0.381595470935814
49                     106                     102              102.828427       0.142935535067207      0.0670453949919652    0.000615727085273064
50                     106                     102                     100      -0.150567251826699      -0.514161936740698       0.380627246163908
51                     108                     100              105.656854       0.109954794901112        1.06095130238584      -0.801715547773754
52                     108                     100              102.828427      -0.111806812031931        0.63919299702702   -3.92633999291428e-05
53                     108                     100                     100       0.110727781090563        1.06051150446555       0.801735778044723
54                     110                     102              105.656854      -0.143548610100492      -0.583824147682482      -0.374355994042503
55                     110                     102              102.828427        0.14807958043221       0.136158654216286   -0.000259025986237113
56                     110                     102                     100      -0.145498851393182      -0.583424403609784       0.374863449748509
57                     112                     100              105.656854       0.131180084630727        1.10961792465842      -0.810398070205946
58                     112                     100              102.828427      -0.135018937104818       0.588598961258169    0.000776230694845902
59                     112                     100                     100         0.1324717174768        1.11038437138714        0.80905574301934
60                     114                     102              105.656854      -0.162022025978386       -0.62048407525546       -0.36184444743067
61                     114                     102              102.828427       0.167380796983449       0.175886851606249    -0.00204676909568858
62                     114                     102                     100      -0.164341288394084      -0.623248956679289       0.365254140389597
63                     116                     100              105.656854       0.165209594687151        1.14409299425277      -0.821172120962121
64                     116                     100              102.828427      -0.169693837923702       0.552163519656326     0.00158694331303066
65                     116                     100                     100       0.165829661772467        1.14632328889745       0.818503193321243
66                     118                     102              105.656854      -0.207168038122164      -0.649860558736431      -0.347669416406727
67                     118                     102              102.828427       0.212652017143075       0.207317824354627     -0.0029623276808591
68                     118                     102                     100      -0.206922489046365      -0.654450325811664       0.352550774338443
69                     120                     100              105.656854       0.222361837558637        1.18133534941691      -0.835493771352906
70                     120                     100              102.828427      -0.227951431276231       0.513787335085432     0.00150492225186172
71                     120                     100                     100       0.221552476577745        1.18340990276155       0.832958367564847
72                     122                     102              105.656854      -0.288604603123448      -0.685596828825377      -0.329668168425812
73                     122                     102              102.828427       0.293343917264608       0.242729367418215    -0.00177188120639572
74                     122                     102                     100      -0.286146343479552      -0.687828622330027       0.332634528747114
75                     124                     100              105.656854       0.326641235350031        1.23557304742951       -0.85236638888382
76                     124                     100              102.828427      -0.323172499313556       0.460361756887688    0.000631745726690258
77                     124                     100                     100       0.325376821233187        1.23609762831752       0.851262562360918
78                     126                     102              105.656854      -0.462848045042046      -0.726703932587261      -0.331741097655014
79                     126                     102              102.828427       0.398038545217202        0.28092113728065   -5.48012529447855e-05
80                     126                     102                     100      -0.461139301887337      -0.726013250918764       0.331911614792335
81                     128                     100              105.656854       0.708882755181829        1.34035866741297      -0.754831871209098
82                     128                     100              102.828427      -0.281406341572459       0.396399352962736   -0.000116450301980665
83                     128                     100                     100        0.70822271451869        1.33983728644166         0.7549850984787
84                     130                     102              105.656854       -1.34137988630645      -0.708855727069319      -0.755424008861622
85                     130                     102              102.828427      -0.395215146371014       0.281020878253616    0.000651233591473134
86                     130                     102                     100       -1.34107348866908      -0.707574761074809       0.754387436692015
87                     100                     104              105.656854       0.959411478557565      0.0995394822475448      -0.808569378223813
88                     100                     104              102.828427       0.727333273114604     -0.0669168680636982   -0.000870769629710843
89                     100                     104                     100        0.95885555598811      0.0985821822259991       0.810036072944754
90                     102                     106              105.656854      -0.514360476997267      -0.155970719171862      -0.382380431396248
91                     102                     106              102.828427      0.0658808709007353       0.147593556645045     0.00174622222177652
92                     102                     106                     100       -0.51305226072572       -0.15391827278982       0.379530752983233
93                     104                     104              105.656854        0.24834512400594       0.252574472257595      -0.388607608595711
94                     104                     104              102.828427      -0.180900022301232      -0.184359962700497    -0.00128569218093837
95                     104                     104                     100       0.247973134220898       0.250563929572408       0.390680778465069
96                     106                     106              105.656854      -0.236003628180878      -0.244299332193995      -0.504430228167991
97                     106                     106              102.828427       0.227272998858087       0.233465348882142     0.00270651034987856
98                     106                     106                     100      -0.235280290355001      -0.239456838487308       0.500138355122758
99                     108                     104              105.656854       0.175120871881143       0.340248298110607      -0.374710381766843
100                     108                     104              102.828427      -0.178373107661378      -0.269971889932782    -0.00102338339419254
101                     108                     104                     100       0.176663359591145       0.337501881838133       0.376271057581102
102                     110                     106              105.656854       -0.18557034445488      -0.298722843945871      -0.492378314501412
103                     110                     106              102.828427       0.193684983054602        0.28868957256118     0.00131490232141632
104                     110                     106                     100      -0.191275292135556       -0.29328331772656       0.490261067458952
105                     112                     104              105.656854       0.166074865632901       0.383614123144191      -0.389504420939685
106                     112                     104              102.828427      -0.173281204658174      -0.316915082762462     0.00150561446623161
107                     112                     104                     100       0.171043146854963       0.384619748736775       0.386948652480122
108                     114                     106              105.656854      -0.181809554760208      -0.314847524871712      -0.469996081958404
109                     114                     106              102.828427       0.193596457670948       0.315056292889214     -0.0058331460572591
110                     114                     106                     100      -0.192935299134087      -0.323594396992083       0.480017266439223
111                     116                     104              105.656854       0.193492238625035       0.405935798350768      -0.406105419157479
112                     116                     104              102.828427      -0.200257756567001      -0.344491464267552     0.00497549671121707
113                     116                     104                     100       0.196340921579121       0.414045778669505       0.397928819209856
114                     118                     106              105.656854      -0.232788708913155      -0.324882613132826      -0.449095939159373
115                     118                     106              102.828427       0.238458136361961       0.332281315756772     -0.0102307583305826
116                     118                     106                     100      -0.231548489564522      -0.343512390545487       0.466627894726656
117                     120                     104              105.656854       0.258419795113542       0.431496526451767      -0.423045310794832
118                     120                     104              102.828427      -0.263400711459079      -0.370364617872408     0.00459684108154824
119                     120                     104                     100        0.25473283949243       0.438794404124795       0.415480558241272
120                     122                     106              105.656854      -0.320959968534753      -0.353901322078239      -0.434490206044771
121                     122                     106              102.828427       0.320737396951773       0.353344833035593      -0.004558195600232
122                     122                     106                     100      -0.309514921311335       -0.35977581644757        0.44230900855541
123                     124                     104              105.656854       0.370336807417224       0.460874234401109      -0.439551356321389
124                     124                     104              102.828427      -0.363789161512783      -0.395953710743435    0.000960519073489399
125                     124                     104                     100       0.365751611337972       0.460878069054696       0.437879886206665
126                     126                     106              105.656854      -0.470777287009672       -0.36870745219123      -0.441269816347336
127                     126                     106              102.828427       0.403929202237166       0.360694329560757     0.00186626346150207
128                     126                     106                     100      -0.466566266438455      -0.362691346519217       0.438272377314372
129                     128                     104              105.656854       0.729769501506957       0.462463499391654      -0.330671824140795
130                     128                     104              102.828427       -0.28396159908911      -0.396916563351503    -0.00115969085068558
131                     128                     104                     100       0.728696107633527        0.45969777551572       0.332462995491901
132                     130                     106              105.656854       -1.23776980819813      -0.329862754304001      -0.854152299057187
133                     130                     106              102.828427      -0.457643182951556       0.324594617481565     0.00258351934820753
134                     130                     106                     100       -1.23879326478531      -0.325556600090491       0.850048502838666
135                     100                     108              105.656854         1.0627356040133       0.115429046326398      -0.800510389820877
136                     100                     108              102.828427       0.638104522411416      -0.116189403689668    -0.00182292971111927
137                     100                     108                     100        1.06095182233383       0.113904106077522       0.803523028166379
138                     102                     110              105.656854      -0.588743355347949      -0.153069261742783      -0.377369850316359
139                     102                     110              102.828427       0.138885029471549       0.155086631263096      0.0037351867750985
140                     102                     110                     100      -0.584443415827382      -0.150092734658454       0.371351413667974
141                     104                     108              105.656854       0.339287767615185       0.186671989742481      -0.372499846241148
142                     104                     108              102.828427       -0.26847136488012      -0.186631301481276    -0.00378243149893571
143                     104                     108                     100       0.335905767906646       0.181947333903079       0.378552694538979
144                     106                     110              105.656854      -0.300378816779981      -0.210724798429719      -0.500111775082167
145                     106                     110              102.828427       0.286955184624008       0.208651306369072     0.00871469214325019
146                     106                     110                     100      -0.290851037218583      -0.199368911998499       0.485456133368746
147                     108                     108              105.656854       0.230834827856489       0.249602043343713      -0.359180740191106
148                     108                     108              102.828427      -0.233524948397553      -0.245299625129201    -0.00594760815538375
149                     108                     108                     100       0.229964848322437       0.236737983582734       0.369402136569043
150                     110                     110              105.656854      -0.216575157085101      -0.268001247846035      -0.500889539827989
151                     110                     110              102.828427        0.22506519822781       0.247825677752525       0.011782919225633
152                     110                     110                     100      -0.224002776579515      -0.234475973031223       0.471353422470179
153                     112                     108              105.656854       0.178830041227929       0.276060764529896      -0.382238483215635
154                     112                     108              102.828427      -0.198247501329455      -0.276208331695076    0.000972485837441106
155                     112                     108                     100        0.20058828592094       0.269664096493097       0.381468537379084
156                     114                     110              105.656854      -0.147082113617086      -0.218439015061281      -0.416355668393475
157                     114                     110              102.828427       0.199462919235696       0.254179412694281      -0.014364232508351
158                     114                     110                     100       -0.20937873270194      -0.251465287847269       0.465306012071306
159                     116                     108              105.656854       0.201367749032286       0.255089135959267      -0.422799468479389
160                     116                     108              102.828427      -0.216591295121139      -0.283674083364613      0.0171572996227717
161                     116                     108                     100        0.21587168170342       0.286618946838032       0.389752506644229
162                     118                     110              105.656854       -0.24918277752739      -0.183441299439987      -0.356339202539045
163                     118                     110              102.828427       0.252130747399984       0.253953511591491     -0.0328902805240995
164                     118                     110                     100      -0.243642033981187       -0.25908789043647       0.454986570558711
165                     120                     108              105.656854       0.290660483607254       0.271189039516885      -0.439009449456786
166                     120                     108              102.828427      -0.285796435283089       -0.29716961073015       0.015309744666392
167                     120                     108                     100       0.271639587645145       0.298584767729978       0.409490705257291
168                     122                     110              105.656854      -0.380577572056335      -0.247438691129872      -0.394246166431917
169                     122                     110              102.828427       0.338306761147961       0.268891200138492    -0.00880208072087257
170                     122                     110                     100      -0.315632965626964      -0.263313629979783       0.424294202956235
171                     124                     108              105.656854       0.388559714840828       0.314377857245339      -0.434683506312503
172                     124                     108              102.828427      -0.373597816355347      -0.312578454809081    -0.00118078259109795
173                     124                     108                     100        0.37079581034373       0.303710201821601         0.4379781359238
174                     126                     110              105.656854       -0.44951953395327      -0.285306880006423      -0.443469374372295
175                     126                     110              102.828427        0.38780042577546       0.268723185306192        0.01241029753956
176                     126                     110                     100      -0.450116006870985      -0.254698864202697       0.415096281232009
177                     128                     108              105.656854       0.691321969116163       0.297643829662413      -0.324413418356885
178                     128                     108              102.828427      -0.249483918914114      -0.296321057742219    -0.00578188725632885
179                     128                     108                     100       0.693498159538394       0.286314525793817        0.33410111280279
180                     130                     110              105.656854       -1.17824114399914      -0.232572439116633      -0.842332368165777
181                     130                     110              102.828427      -0.511898107266444       0.232894496806812     0.00768923749726385
182                     130                     110                     100       -1.18689333939609      -0.223395288491223       0.829677555455954
183                     100                     112              105.656854        1.11659619025353        0.13679410424725      -0.807737885692542
184                     100                     112              102.828427       0.583918975825084      -0.139344110023282     -0.0029873071751027
185                     100                     112                     100         1.1129483239194       0.135452688701034       0.812617237874413
186                     102                     114              105.656854      -0.634954160078507      -0.168982426799171      -0.367926150443705
187                     102                     114              102.828427       0.184445644628646       0.172340405290041     0.00562560839711643
188                     102                     114                     100      -0.627257720552509      -0.167458935110564       0.358894296859737
189                     104                     112              105.656854       0.397225985695934       0.182509696818374      -0.381001906159279
190                     104                     112              102.828427      -0.323143136412405      -0.183963401640971      -0.007910244701956
191                     104                     112                     100        0.38649254221132       0.177186709318924       0.393834816210139
192                     106                     114              105.656854      -0.350304474469954      -0.205752083221682      -0.495992411084767
193                     106                     114              102.828427        0.32687341897089       0.207051052132555      0.0160452221325529
194                     106                     114                     100      -0.325969791799939       -0.19965024462895       0.467398444004758
195                     108                     112              105.656854       0.292998710241152        0.23617639241073      -0.346660647868613
196                     108                     112              102.828427      -0.273597371392823      -0.223294953270654     -0.0191967465344476
197                     108                     112                     100       0.265488475661296       0.211670030480135       0.390925127539343
198                     110                     114              105.656854      -0.255754105801297      -0.218802032108945      -0.572124428990544
199                     110                     114              102.828427       0.243342710135713       0.229633602023466       0.028967877761556
200                     110                     114                     100      -0.243757499725445      -0.221134613024743       0.450238618091417
201                     112                     112              105.656854       0.133849590364914       0.286166820045112      -0.309291900896497