ITEM: TIMESTEP
0
ITEM: NUMBER OF ATOMS
422
ITEM: BOX BOUNDS pp pp pp
0.0000000000000000e+00 3.2000000000000000e+01
0.0000000000000000e+00 3.2000000000000000e+01
0.0000000000000000e+00 3.2000000000000000e+01
ITEM: ATOMS id xu yu zu fx fy fz
1        13.1062451932912        15.9438338151299        8.61716299945264        8.02155753176249         7.1117665287047        1.58373217626391
2         18.826970794532        15.9887121960953         8.6563359544609       0.950780912255888       0.197938947859001      0.0774361821939566
3        17.4348211463485        16.0202712651965         8.6893261524315       -2.20262574427449       -2.25925334147054      -0.301388027135939
4        14.6035612017406        16.0174411057275        8.68933916279162       -3.23390998527244       -3.14229995082922      -0.806172674054703
5        16.7194918845716        14.7681415669661        8.67526671680238      -0.210875903593892      -0.368187666100447      0.0109286823606892
6        15.3079724403682        14.7814380582127        8.68999544950075       -3.24401909480699       -3.46939176216506      -0.668052397649557
7        15.2890532112364        17.2397335515965        8.67356134620881      -0.336733610230972      -0.172322436432563    0.000503266165152955
8        16.7106722663514        17.2365366715124        8.66893222492988       0.398251734596541       0.799607071440584       0.311696209631817
9        14.4713258237556        13.5020151441734        8.61041890299824        2.85103368939785        3.36175363799957       0.497843464895591
10        17.4391489768659        13.5299968980207        8.63544549413461        3.19910762968068        2.81505810993471       0.688794169492836
11        14.5008061642932        18.4092882654133         8.6447926135203      0.0516969913036156        1.68734359838917      0.0303682930827758
12        17.4585143734283         18.427155076952        8.65970426277308         -1.573588164058      -0.989718815940727      -0.279740635813045
13         13.079062392551        13.5141957202128        8.60860113231523        3.13285938082386         4.7826231276464       0.540387189781605
14        13.0745314175446        18.3566373717053        8.60893260943095        5.47518802855014        4.91535876558758       0.479031347739068
15        18.8821241920656        13.5993482594696        8.68800596589753       -5.32851905536425       -5.29518919477851      -0.773362844841422
16        18.8045672525305        18.3687639516147        8.61531148103425        5.54658077260755        6.15428295413659        1.04744158672849
17        12.4736962704347        17.2412203759357        8.70375043229575       -5.63793161114483       -7.04502195175418        -0.9849163339654
18        12.4583554805553        14.8004062368792        8.68597642181576       -4.14700505219722       -5.16470189602116      -0.761120630765358
19        19.4972315263526        14.7290374419324        8.60746032966033        4.05823523619046        4.12592842540411       0.405497212798761
20        19.5659265747424        17.2232058426737        8.67858859971411       -4.06814783283006       -5.02905046108441       -1.08178326077269
21        20.9101915529536         14.779491616152        8.61190653032959        4.75307675183207        5.46237239787578       0.991225663058529
22        20.9183631313164        17.1238599986415        8.62242176906572        6.48985694741429        7.41087257585262        1.35241023393508
23        11.0499543624258        14.8437875187573        8.68617868926469       -2.70586316699448       -3.04984781273788      -0.262155566548269
24        11.0625038995009        17.1925338586292        8.70107188635553      -0.556762986639395      -0.398161348156065       0.174748889264343
25        21.5861170194546        15.9913876368328        8.65624055871509       -4.85486395918528       -3.48669882606231       -1.03454233017217
26        10.4161076272839        16.0101670314767        8.68626705281227       0.642217358268497        1.04345311066626       0.157263780252058
27        21.6253446944339        18.2020707895362        8.67299864860982       -3.05478294581584       -3.98428517682262      -0.526755177623579
28        21.6589233318902        13.8434426148848        8.70217104519011       -1.53273069762678       -2.84870111708542      -0.301363917780814
29        10.4082659337297        18.2230766702985        8.70530118300225      -0.350266315012885      -0.164581566635795      0.0177523361382882
30        10.3489921086254        13.7715960350947        8.64162111836492        2.54308549964907        3.53583246926063       0.292866104011345
31        12.6119901006078        12.6275780784584        8.66897327836512       -1.70600702197774       -1.92782219233553     -0.0630668608722912
32        12.5753834086223        19.3327632292323        8.63912990802301      -0.168538293114724      -0.491894888017086      -0.125473844849751
33        19.3693426206797        12.6112928223591        8.64587908772783       0.418074397128182       0.804503121800722       0.192575427075125
34        19.4133404934603        19.3970825467069        8.69664028631792       -2.10996166567325       -2.83438270410078      -0.549416603611952
35        14.9321205095514        12.5387945005641        8.62668393668454      0.0102815665659538      -0.296053430113114      -0.103268138073291
36        14.9900250027624        19.4363220402212        8.69144989408041       -1.47508787584193       -1.55030586365068      -0.210812487207889
37        17.0122618954036        12.5652948811214        8.65111997138206      -0.454832081802544      -0.536609346795584     -0.0647077783194411
38        17.0002744268879        19.3929304599414        8.64599396935686        0.41116863543086        0.29578690653127       0.045597295188146
39                       0                       0                5.656854                       0                       0                       0
40                       0                       0                2.828427                       0                       0                       0
41                       0                       0                       0                       0                       0                       0
42                       2                       2                5.656854                       0                       0                       0
43                       2                       2                2.828427                       0                       0                       0
44                       2                       2                       0                       0                       0                       0
45                       4                       0                5.656854                       0                       0                       0
46                       4                       0                2.828427                       0                       0                       0
47                       4                       0                       0                       0                       0                       0
48                       6                       2                5.656854                       0                       0                       0
49                       6                       2                2.828427                       0                       0                       0
50                       6                       2                       0                       0                       0                       0
51                       8                       0                5.656854                       0                       0                       0
52                       8                       0                2.828427                       0                       0                       0
53                       8                       0                       0                       0                       0                       0
54                      10                       2                5.656854                       0                       0                       0
55                      10                       2                2.828427                       0                       0                       0
56                      10                       2                       0                       0                       0                       0
57                      12                       0                5.656854                       0                       0                       0
58                      12                       0                2.828427                       0                       0                       0
59                      12                       0                       0                       0                       0                       0
60                      14                       2                5.656854                       0                       0                       0
61                      14                       2                2.828427                       0                       0                       0
62                      14                       2                       0                       0                       0                       0
63                      16                       0                5.656854                       0                       0                       0
64                      16                       0                2.828427                       0                       0                       0
65                      16                       0                       0                       0                       0                       0
66                      18                       2                5.656854                       0                       0                       0
67                      18                       2                2.828427                       0                       0                       0
68                      18                       2                       0                       0                       0                       0
69                      20                       0                5.656854                       0                       0                       0
70                      20                       0                2.828427                       0                       0                       0
71                      20                       0                       0                       0                       0                       0
72                      22                       2                5.656854                       0                       0                       0
73                      22                       2                2.828427                       0                       0                       0
74                      22                       2                       0                       0                       0                       0
75                      24                       0                5.656854                       0                       0                       0
76                      24                       0                2.828427                       0                       0                       0
77                      24                       0                       0                       0                       0                       0
78                      26                       2                5.656854                       0                       0                       0
79                      26                       2                2.828427                       0                       0                       0
80                      26                       2                       0                       0                       0                       0
81                      28                       0                5.656854                       0                       0                       0
82                      28                       0                2.828427                       0                       0                       0
83                      28                       0                       0                       0                       0                       0
84                      30                       2                5.656854                       0                       0                       0
85                      30                       2                2.828427                       0                       0                       0
86                      30                       2                       0                       0                       0                       0
87                       0                       4                5.656854                       0                       0                       0
88                       0                       4                2.828427                       0                       0                       0
89                       0                       4                       0                       0                       0                       0
90                       2                       6                5.656854                       0                       0                       0
91                       2                       6                2.828427                       0                       0                       0
92                       2                       6                       0                       0                       0                       0
93                       4                       4                5.656854                       0                       0                       0
94                       4                       4                2.828427                       0                       0                       0
95                       4                       4                       0                       0                       0                       0
96                       6                       6                5.656854                       0                       0                       0
97                       6                       6                2.828427                       0                       0                       0
98                       6                       6                       0                       0                       0                       0
99                       8                       4                5.656854                       0                       0                       0
100                       8                       4                2.828427                       0                       0                       0
101                       8                       4                       0                       0                       0                       0
102                      10                       6                5.656854                       0                       0                       0
103                      10                       6                2.828427                       0                       0                       0
104                      10                       6                       0                       0                       0                       0
105                      12                       4                5.656854                       0                       0                       0
106                      12                       4                2.828427                       0                       0                       0
107                      12                       4                       0                       0                       0                       0
108                      14                       6                5.656854                       0                       0                       0
109                      14                       6                2.828427                       0                       0                       0
110                      14                       6                       0                       0                       0                       0
111                      16                       4                5.656854                       0                       0                       0
112                      16                       4                2.828427                       0                       0                       0
113                      16                       4                       0                       0                       0                       0
114                      18                       6                5.656854                       0                       0                       0
115                      18                       6                2.828427                       0                       0                       0
116                      18                       6                       0                       0                       0                       0
117                      20                       4                5.656854                       0                       0                       0
118                      20                       4                2.828427                       0                       0                       0
119                      20                       4                       0                       0                       0                       0
120                      22                       6                5.656854                       0                       0                       0
121                      22                       6                2.828427                       0                       0                       0
122                      22                       6                       0                       0                       0                       0
123                      24                       4                5.656854                       0                       0                       0
124                      24                       4                2.828427                       0                       0                       0
125                      24                       4                       0                       0                       0                       0
126                      26                       6                5.656854                       0                       0                       0
127                      26                       6                2.828427                       0                       0                       0
128                      26                       6                       0                       0                       0                       0
129                      28                       4                5.656854                       0                       0                       0
130                      28                       4                2.828427                       0                       0                       0
131                      28                       4                       0                       0                       0                       0
132                      30                       6                5.656854                       0                       0                       0
133                      30                       6                2.828427                       0                       0                       0
134                      30                       6                       0                       0                       0                       0
135                       0                       8                5.656854                       0                       0                       0
136                       0                       8                2.828427                       0                       0                       0
137                       0                       8                       0                       0                       0                       0
138                       2                      10                5.656854                       0                       0                       0
139                       2                      10                2.828427                       0                       0                       0
140                       2                      10                       0                       0                       0                       0
141                       4                       8                5.656854                       0                       0                       0
142                       4                       8                2.828427                       0                       0                       0
143                       4                       8                       0                       0                       0                       0
144                       6                      10                5.656854                       0                       0                       0
145                       6                      10                2.828427                       0                       0                       0
146                       6                      10                       0                       0                       0                       0
147                       8                       8                5.656854                       0                       0                       0
148                       8                       8                2.828427                       0                       0                       0
149                       8                       8                       0                       0                       0                       0
150                      10                      10                5.656854                       0                       0                       0
151                      10                      10                2.828427                       0                       0                       0
152                      10                      10                       0                       0                       0                       0
153                      12                       8                5.656854                       0                       0                       0
154                      12                       8                2.828427                       0                       0                       0
155                      12                       8                       0                       0                       0                       0
156                      14                      10                5.656854                       0                       0                       0
157                      14                      10                2.828427                       0                       0                       0
158                      14                      10                       0                       0                       0                       0
159                      16                       8                5.656854                       0                       0                       0
160                      16                       8                2.828427                       0                       0                       0
161                      16                       8                       0                       0                       0                       0
162                      18                      10                5.656854                       0                       0                       0
163                      18                      10                2.828427                       0                       0                       0
164                      18                      10                       0                       0                       0                       0
165                      20                       8                5.656854                       0                       0                       0
166                      20                       8                2.828427                       0                       0                       0
167                      20                       8                       0                       0                       0                       0
168                      22                      10                5.656854                       0                       0                       0
169                      22                      10                2.828427                       0                       0                       0
170                      22                      10                       0                       0                       0                       0
171                      24                       8                5.656854                       0                       0                       0
172                      24                       8                2.828427                       0                       0                       0
173                      24                       8                       0                       0                       0                       0
174                      26                      10                5.656854                       0                       0                       0
175                      26                      10                2.828427                       0                       0                       0
176                      26                      10                       0                       0                       0                       0
177                      28                       8                5.656854                       0                       0                       0
178                      28                       8                2.828427                       0                       0                       0
179                      28                       8                       0                       0                       0                       0
180                      30                      10                5.656854                       0                       0                       0
181                      30                      10                2.828427                       0                       0                       0
182                      30                      10                       0                       0                       0                       0
183                       0                      12                5.656854                       0                       0                       0
184                       0                      12                2.828427                       0                       0                       0
185                       0                      12                       0                       0                       0                       0
186                       2                      14                5.656854                       0                       0                       0
187                       2                      14                2.828427                       0                       0                       0
188                       2                      14                       0                       0                       0                       0
189                       4                      12                5.656854                       0                       0                       0
190                       4                      12                2.828427                       0                       0                       0
191                       4                      12                       0                       0                       0                       0
192                       6                      14                5.656854                       0                       0                       0
193                       6                      14                2.828427                       0                       0                       0
194                       6                      14                       0                       0                       0                       0
195                       8                      12                5.656854                       0                       0                       0
196                       8                      12                2.828427                       0                       0                       0
197                       8                      12                       0                       0                       0                       0
198                      10                      14                5.656854                       0                       0                       0
199                      10                      14                2.828427                       0                       0                       0
200                      10                      14                       0                       0                       0                       0
201                      12                      12                5.656854                       0                       0                       0