ITEM: TIMESTEP
0
ITEM: NUMBER OF ATOMS
422
ITEM: BOX BOUNDS pp pp pp
0.0000000000000000e+00 3.2000000000000000e+01
0.0000000000000000e+00 3.2000000000000000e+01
0.0000000000000000e+00 3.2000000000000000e+01
ITEM: ATOMS id xu yu zu fx fy fz
1        15.0459321938386        15.9835208156773                 8.65685     0.00554545518907387    0.000432408848651852     0.00424997896686299
2        20.7274848400711        15.9892262416344                 8.65685    -0.00449513320406698    0.000199364883183246    0.000600699141803233
3         19.302344993917         15.987795112765                 8.65685     0.00432731311688972    0.000214628590219951     0.00018961018134083
4         16.471072038949        15.9849519429358                 8.65685    -0.00294028637097365    0.000173589159811971     -0.0023576203522955
5        18.6010751677692        14.7497248501637                 8.65685      0.0260176573185881       0.032451789387614       0.107265054766705
6        17.1748269908674        14.7482926087119                 8.65685     -0.0292351634916687      0.0265241241607222      0.0851909346336403
7        17.1723418650276        17.2230222053877                 8.65685     -0.0284520801971418     -0.0267200002672242      0.0822457782220073
8        18.5985900414216        17.2244544465825                 8.65685      0.0253233443062793     -0.0328053303073133       0.104494258693148
9        16.4177569207574        13.5484462411751                 8.65685     -0.0188428284419767    -0.00684598030153578      0.0288279789909685
10        19.3605534827313        13.5514014038861                 8.65685      0.0274965196002618    -0.00971529344539853      0.0467106175727052
11        16.4128635507729         18.421345651893                 8.65685     -0.0189461249111331      0.0064524703728724      0.0291955493500997
12        19.3556601106552        18.4243008141789                 8.65685      0.0280355066586302     0.00938796299211232      0.0479845986951602
13        15.0273112602358        13.5624445878976                 8.65685      0.0360691083355627     -0.0154646170889707      0.0849031402175901
14        15.0224488081137        18.4045547622743                 8.65685      0.0367671643432824      0.0146402400753706      0.0872836941566398
15         20.750968226168        13.5681922935721                 8.65685     -0.0313549563527955     -0.0112247673884887      0.0587371052609226
16        20.7461057714963        18.4103024705805                 8.65685     -0.0315674456926093      0.0107102581745752       0.059026327303891
17         14.326795838139        17.1943199436399                 8.65685      0.0157034022103305     -0.0387299866003172       0.120916692696787
18        14.3292290587396        14.7712798150634                 8.65685       0.016352826711073      0.0383360896852608        0.12552438794164
19        21.4466211966922        14.7784271122721                 8.65685     -0.0241195607721201      0.0339275870843421        0.10813359333474
20        21.4441879750283        17.2014672429596                 8.65685     -0.0237072626090458     -0.0340537568960869       0.105493987654853
21        22.8551350226241        14.8244350858224                 8.65685      0.0272101728281597      0.0262418697102692      0.0751342268053047
22        22.8527913622507        17.1582882295758                 8.65685      0.0267158939732444     -0.0263724826567056      0.0737609382242939
23        12.9206256731611        14.8144588294926                 8.65685     -0.0262058170249351      0.0199415981381729      0.0548041606016582
24        12.9182820131454        17.1483119722736                 8.65685     -0.0251680512945554     -0.0199768406988718      0.0520168522359038
25        23.4867264607395        15.9919970781177                 8.65685    0.000995461080730148    3.59417234852318e-05    -0.00912261806896391
26        12.2866905744716        15.9807499786644                 8.65685   -0.000530796283324104    5.08979465462036e-05    -0.00976103077604897
27         23.509196045824        18.1859221409264                 8.65685     0.00988129297355407      0.0013598732585717     0.00772249001090582
28        23.5136022867001        13.7981215696947                 8.65685     0.00976102314744715    -0.00145886502009449     0.00748328052903622
29        12.2598147507275        18.1746254872963                 8.65685    -0.00539592331595483    0.000879787946709355     0.00141426643366699
30        12.2642209902605        13.7868249167297                 8.65685    -0.00543284168832824    -0.00106884046035226     0.00135837807543674
31        14.4998668222426        12.6154548000933                 8.65685    0.000842865712427805     -0.0026605590024971    -0.00527301966792868
32        14.4931035005993        19.3504833212092                 8.65685    0.000905370466082189     0.00280337708890335    -0.00485681712522554
33        21.2803135329519        12.6222637346313                 8.65685   -0.000997521506285841    -0.00218450404390454    -0.00620194603901196
34        21.2735502071424         19.357292260389                 8.65685    -0.00105063143457702     0.00223067856675072    -0.00604422614403707
35        16.8622865728669        12.5689605638796                 8.65685   -0.000716259164890176    -0.00103386219002376    -0.00847165683418831
36         16.855425108682        19.4017221461408                 8.65685   -0.000777123133002822     0.00106954461540082    -0.00835552030874946
37        18.9179919240215        12.5710249097393                 8.65685    0.000853006198638125    -0.00155041502658727    -0.00754301750776759
38         18.911130457531        19.4037864905846                 8.65685    0.000917111354566513     0.00163097485399163    -0.00733704490709742
39                       0                       0                5.656854                       0                       0                       0
40                       0                       0                2.828427                       0                       0                       0
41                       0                       0                       0                       0                       0                       0
42                       2                       2                5.656854                       0                       0                       0
43                       2                       2                2.828427                       0                       0                       0
44                       2                       2                       0                       0                       0                       0
45                       4                       0                5.656854                       0                       0                       0
46                       4                       0                2.828427                       0                       0                       0
47                       4                       0                       0                       0                       0                       0
48                       6                       2                5.656854    4.80362509829661e-09    7.85882197458723e-09    2.01936375385271e-09
49                       6                       2                2.828427    1.50672099417857e-10    2.51273717147887e-10    1.27722947018385e-10
50                       6                       2                       0                       0                       0                       0
51                       8                       0                5.656854     2.2072367359261e-10    1.29836449445446e-11    1.26243977334475e-10
52                       8                       0                2.828427                       0                       0                       0
53                       8                       0                       0                       0                       0                       0
54                      10                       2                5.656854    4.60299075831723e-08    1.26072091277419e-07    3.29845665875652e-08
55                      10                       2                2.828427    1.74970638559069e-09    4.81987022780742e-09    2.44783687182663e-09
56                      10                       2                       0    4.18033171338924e-10    1.38946021314222e-09    1.07332704094359e-09
57                      12                       0                5.656854    1.26042227170999e-09    1.24218555378508e-10    1.26534941271072e-09
58                      12                       0                2.828427      8.782049398274e-10    7.27975917358493e-10    1.86018082735995e-09
59                      12                       0                       0                       0                       0                       0
60                      14                       2                5.656854     8.0847688065905e-08    5.52694724090222e-07    1.47676262814099e-07
61                      14                       2                2.828427    2.95806950420743e-09    1.96166180700389e-08    1.01474480135201e-08
62                      14                       2                       0     1.1100727551273e-09    8.36577078963169e-09    6.51903613354935e-09
63                      16                       0                5.656854    8.24241987444977e-10    2.80613555852095e-10    3.08730242623751e-09
64                      16                       0                2.828427    6.09504665463501e-10    3.10573724787112e-10    6.97859545770153e-09
65                      16                       0                       0                       0                       0                       0
66                      18                       2                5.656854   -3.29745853653117e-09     8.0676918099697e-07    2.17018398365864e-07
67                      18                       2                2.828427    -1.2055992110409e-10    2.82295914433979e-08    1.46900939732917e-08
68                      18                       2                       0   -6.92416518981568e-11    1.28072256484742e-08    1.00126611975357e-08
69                      20                       0                5.656854    -9.1816513752051e-10    2.37476909971223e-10    3.02013683917088e-09
70                      20                       0                2.828427   -7.76178565794316e-10    2.52477352340354e-10    6.87853099338763e-09
71                      20                       0                       0                       0                       0                       0
72                      22                       2                5.656854    -8.2759307432995e-08    5.22875079262074e-07    1.39552569450759e-07
73                      22                       2                2.828427   -3.03139639498772e-09    1.86216727121387e-08    9.62218521460135e-09
74                      22                       2                       0   -1.18239466849164e-09    8.01581250669156e-09    6.23971749278432e-09
75                      24                       0                5.656854   -1.23031048491006e-09    8.16650812199274e-11    1.16981821042819e-09
76                      24                       0                2.828427   -8.70730515255986e-10    6.91713524458522e-10    1.72974950994719e-09
77                      24                       0                       0                       0                       0                       0
78                      26                       2                5.656854   -4.16109576461855e-08    1.10208833886905e-07    2.88010690060982e-08
79                      26                       2                2.828427   -1.62058143258932e-09    4.28927744169288e-09    2.17451066419265e-09
80                      26                       2                       0   -4.02708346935376e-10     1.2682215997397e-09    9.77652435732858e-10
81                      28                       0                5.656854   -2.01131904688316e-10    6.62829863605468e-12    1.10898994678741e-10
82                      28                       0                2.828427                       0                       0                       0
83                      28                       0                       0                       0                       0                       0
84                      30                       2                5.656854   -3.47093810589757e-09    5.74084001041289e-09    1.47063144075735e-09
85                      30                       2                2.828427   -1.29927483919672e-10    2.10807377043653e-10    1.06971463761715e-10
86                      30                       2                       0                       0                       0                       0
87                       0                       4                5.656854   -1.46088867123438e-09    1.62584790875385e-09    4.94658968318589e-10
88                       0                       4                2.828427   -1.62195152991562e-09    1.77107873935347e-09    1.07245207052237e-09
89                       0                       4                       0                       0                       0                       0
90                       2                       6                5.656854    2.63868451411886e-09    1.55218495724507e-08     5.7514569017493e-09
91                       2                       6                2.828427    6.85641663290025e-11    4.26872264576152e-10    3.19311842609195e-10
92                       2                       6                       0                       0                       0                       0
93                       4                       4                5.656854    2.06846334376518e-09    2.33212711631217e-09    7.05671496157087e-10
94                       4                       4                2.828427    1.98008740047061e-09    2.21194466403031e-09    1.34158307728953e-09
95                       4                       4                       0                       0                       0                       0
96                       6                       6                5.656854    7.48593501297281e-07    8.60684381630811e-07    3.23241930402502e-07
97                       6                       6                2.828427    2.39685711004776e-08    2.73834271288024e-08    1.98930250266906e-08
98                       6                       6                       0    1.06378796130102e-08    1.21635646446128e-08    1.31258286426172e-08
99                       8                       4                5.656854    4.86593952755824e-08    8.64937068121558e-08    2.66287404406676e-08
100                       8                       4                2.828427    5.33107631754544e-08     9.4163069503624e-08    5.63580887596322e-08
101                       8                       4                       0    6.89859441006551e-10    1.25399494172735e-09    1.12158562904965e-09
102                      10                       6                5.656854    1.10980823490702e-05    2.28574602573987e-05    8.93723689850582e-06
103                      10                       6                2.828427    2.61843705076168e-07    5.29250549526261e-07    3.97754120982485e-07
104                      10                       6                       0    8.88898229976058e-08    1.76440718061636e-07     1.9468706615972e-07
105                      12                       4                5.656854    2.42320724715274e-07     8.5131406881282e-07    2.71818631802037e-07
106                      12                       4                2.828427    2.26505823091845e-07    7.86302984849486e-07    4.83602748934649e-07
107                      12                       4                       0    2.83350337228806e-09    9.86451546455453e-09    8.98367975740327e-09
108                      14                       6                5.656854    2.40497879616252e-05     0.00013468016211961    5.54020074483971e-05
109                      14                       6                2.828427    4.67913110478899e-07    2.50441248991494e-06    1.96402208119853e-06
110                      14                       6                       0    1.34380158827214e-07    6.84346002905981e-07    7.81098191928685e-07
111                      16                       4                5.656854    1.35412252695507e-07    2.17112322587185e-06    7.07747625705838e-07
112                      16                       4                2.828427    1.25376057969513e-07    1.86202704633794e-06    1.16743570917711e-06
113                      16                       4                       0    1.51960239837636e-09    2.20461817237454e-08    2.03700136458887e-08
114                      18                       6                5.656854   -7.33593445149215e-07    0.000196536488766439    8.19974654220474e-05
115                      18                       6                2.828427   -1.55432216802545e-08    3.56476673013504e-06    2.83418029844886e-06
116                      18                       6                       0   -4.42467034803497e-09    9.49821999642674e-07    1.09796332730939e-06
117                      20                       4                5.656854   -1.53991309974542e-07    2.11832922189006e-06     6.8996640963187e-07
118                      20                       4                2.828427   -1.41839250468044e-07    1.81930967851116e-06    1.13973316446432e-06
119                      20                       4                       0   -1.74036047760536e-09    2.15973089840658e-08    1.99376868890448e-08
120                      22                       6                5.656854   -2.46570068247281e-05    0.000126320731203972    5.18397901160057e-05
121                      22                       6                2.828427   -4.80728053077694e-07    2.36798841027087e-06    1.85290042680807e-06
122                      22                       6                       0   -1.38542510602568e-07    6.51970352403357e-07     7.4264605575401e-07
123                      24                       4                5.656854   -2.30936042764459e-07    7.70158971592345e-07    2.45314080792461e-07
124                      24                       4                2.828427   -2.17868502341142e-07    7.18311651128577e-07    4.40808738473599e-07
125                      24                       4                       0   -2.76463746924344e-09    9.11891982152221e-09     8.2874264196942e-09
126                      26                       6                5.656854   -9.88842192115134e-06    1.95940194412745e-05    7.63202270115702e-06
127                      26                       6                2.828427   -2.37469694326919e-07    4.61805400451597e-07    3.45924365213004e-07
128                      26                       6                       0   -8.21473468016105e-08      1.568173181821e-07    1.72546311521705e-07
129                      28                       4                5.656854   -4.18757109107878e-08      7.220836002391e-08     2.2198295829171e-08
130                      28                       4                2.828427    -4.6756766188082e-08    8.00804413551281e-08    4.78208164878984e-08
131                      28                       4                       0   -6.19714647692906e-10    1.08865280726702e-09    9.71775364454401e-10
132                      30                       6                5.656854   -6.09209979842031e-07    6.82036417895442e-07    2.55504193192764e-07
133                      30                       6                2.828427   -1.99102823471962e-08    2.21603501873799e-08    1.60597652389036e-08
134                      30                       6                       0   -8.40095806701586e-09    9.40926198891105e-09    1.01945410640327e-08
135                       0                       8                5.656854   -1.03160487487286e-07      7.316843587848e-08    3.52506678607706e-08
136                       0                       8                2.828427   -1.09866209701224e-07    7.78952992580008e-08    7.23386792554999e-08
137                       0                       8                       0    -1.3994373076008e-09    9.91068478546315e-10    1.37957349861531e-09
138                       2                      10                5.656854    7.37416757568922e-08    2.08980098845537e-07    1.38773523327653e-07
139                       2                      10                2.828427    2.43284147871013e-09    7.59158961044594e-09    9.70396541293884e-09
140                       2                      10                       0    9.54357321230776e-10    3.34283210710674e-09    6.51222281725035e-09
141                       4                       8                5.656854    1.34844176751976e-07    9.68281598653737e-08    4.68031526556908e-08
142                       4                       8                2.828427    1.40014401103971e-07    1.00772772123761e-07    9.38813346574167e-08
143                       4                       8                       0    1.71479455505208e-09    1.24249921308436e-09    1.73370340921622e-09
144                       6                      10                5.656854    3.98955190369838e-05    2.55191239320085e-05    1.79526074165438e-05
145                       6                      10                2.828427    8.07508137509277e-07    5.20496664144314e-07     6.9298665515004e-07
146                       6                      10                       0    2.39725258066366e-07     1.5534892457096e-07    2.98927432442698e-07
147                       8                       8                5.656854    6.72455044729131e-06    8.10697106225021e-06    4.06281259235915e-06
148                       8                       8                2.828427    4.32401535105181e-06    5.11718798616415e-06     4.9145175659856e-06
149                       8                       8                       0    3.94696428026949e-08    4.59041139453947e-08    6.44259192610994e-08
150                      10                      10                5.656854     0.00133859062238964       0.001755308502818     0.00131505912143452
151                      10                      10                2.828427    1.37816189390238e-05    1.72444825619793e-05    2.42571721363967e-05
152                      10                      10                       0    2.32880677151413e-06    2.79791203230749e-06    5.62235532539811e-06
153                      12                       8                5.656854    5.40855173664128e-05    0.000139176588724954    7.52131758847271e-05
154                      12                       8                2.828427    2.29654828147643e-05     5.7499789577482e-05    5.85935690265633e-05
155                      12                       8                       0     1.4871520798776e-07    3.58395279144139e-07    5.26245456193665e-07
156                      14                      10                5.656854     0.00307807883074677      0.0117660803029371     0.00995446860732612
157                      14                      10                2.828427    2.38453463729989e-05     8.7800991347639e-05    0.000136187028502115
158                      14                      10                       0     3.1731290462173e-06    1.07875584790236e-05    2.32225477582429e-05
159                      16                       8                5.656854    2.32922581469967e-05    0.000405100513374873    0.000231514123028898
160                      16                       8                2.828427    1.03055447417724e-05    0.000140341365106883    0.000149975147452228
161                      16                       8                       0    6.93476101983641e-08    7.70931147069213e-07    1.17609136808276e-06
162                      18                      10                5.656854   -4.18911574328476e-05      0.0157013896524601      0.0138369017017552
163                      18                      10                2.828427   -4.18074153167678e-07    0.000115386601548662    0.000185350196561149
164                      18                      10                       0   -8.58398289674155e-08     1.4068253827046e-05    3.11659835653704e-05
165                      20                       8                5.656854   -2.82017467258174e-05    0.000396906931201354     0.00022641684650693
166                      20                       8                2.828427   -1.20398275820477e-05     0.00013763483121989      0.0001468365525399
167                      20                       8                       0   -7.91193183442872e-08    7.56817923881855e-07    1.15282483770858e-06
168                      22                      10                5.656854    -0.00319829488751515      0.0111498652030232     0.00937446889503453
169                      22                      10                2.828427   -2.48402403510398e-05    8.34282380974638e-05    0.000128621600027535
170                      22                      10                       0   -3.30896267735853e-06    1.03383827584866e-05    2.21561624199053e-05
171                      24                       8                5.656854   -5.05237775692179e-05    0.000123424835990258    6.62726309569656e-05
172                      24                       8                2.828427   -2.19442852031948e-05    5.20857156897271e-05    5.28200598137774e-05
173                      24                       8                       0   -1.44394500374353e-07    3.30005709387463e-07    4.82741705137551e-07
174                      26                      10                5.656854    -0.00116748893497402     0.00145748991582223     0.00108503689685873
175                      26                      10                2.828427   -1.23786258623128e-05    1.48051476459773e-05    2.07112332598225e-05
176                      26                      10                       0   -2.14476388068233e-06    2.47121426262077e-06    4.94315919969593e-06
177                      28                       8                5.656854   -5.58026545628566e-06    6.49460765118912e-06     3.2424250260182e-06
178                      28                       8                2.828427   -3.69319982876689e-06     4.2270292655597e-06    4.04551802903468e-06
179                      28                       8                       0   -3.46604444257036e-08    3.90374829676743e-08    5.46165972513713e-08
180                      30                      10                5.656854   -3.07490744814113e-05    1.91401922203496e-05     1.3397610652978e-05
181                      30                      10                2.828427   -6.48176492906761e-07    4.06798118371252e-07    5.39318633355159e-07
182                      30                      10                       0   -1.98288731538416e-07    1.25437934329504e-07    2.40754281406963e-07
183                       0                      12                5.656854   -1.49010198842407e-06     4.6322520803822e-07    5.10821995063411e-07
184                       0                      12                2.828427   -1.24560080758502e-06    4.00031597648548e-07     8.2594611604191e-07
185                       0                      12                       0   -1.45869080007482e-08    4.77165279652214e-09    1.40846084312112e-08
186                       2                      14                5.656854     3.7102205821071e-07    2.92122402548129e-07    6.53589666024466e-07
187                       2                      14                2.828427    1.12405685095054e-08    9.97708610335315e-09    4.17782620899618e-08
188                       2                      14                       0    4.21168763717965e-09     4.6486719669027e-09    2.74155887945279e-08
189                       4                      12                5.656854    2.02270864990751e-06    6.37272615368174e-07    7.08226706374958e-07
190                       4                      12                2.828427    1.62846632096873e-06    5.29701729859127e-07    1.10040624958226e-06
191                       4                      12                       0    1.82474193114913e-08    6.09000179084099e-09    1.80584210771512e-08
192                       6                      14                5.656854    0.000318541511275875    5.32226208750035e-05    0.000144288790799669
193                       6                      14                2.828427    4.92457574238296e-06    9.03137342226529e-07    4.26338262391486e-06
194                       6                      14                       0    1.12857018136658e-06    2.22310483693815e-07     1.4204987999418e-06
195                       8                      12                5.656854    0.000268822902056309    0.000137958286184735    0.000173186603405243
196                       8                      12                2.828427     8.7505068408583e-05     4.6630559931057e-05    0.000104984984779531
197                       8                      12                       0    4.63731881488554e-07    2.52738337141937e-07    7.88414657845798e-07
198                      10                      14                5.656854      0.0118912222033656     0.00543759276276614      0.0113426561231335
199                      10                      14                2.828427    0.000115316414729926     4.0585947031253e-05    0.000219660085562155
200                      10                      14                       0    1.22840071334957e-05    4.56271308047918e-06    3.15647136576461e-05
201                      12                      12                5.656854     0.00269494566972675      0.0034838721021172      0.0047448907816954