ITEM: TIMESTEP
0
ITEM: NUMBER OF ATOMS
422
ITEM: BOX BOUNDS ff ff ff
0.0000000000000000e+00 2.3200000000000000e+02
0.0000000000000000e+00 2.3200000000000000e+02
0.0000000000000000e+00 2.3200000000000000e+02
ITEM: ATOMS id xu yu zu fx fy fz
1        113.135692575426        115.973281197265        108.646614381588   -0.000405077473677546    2.16729018697994e-05     -0.0147919391477898
2        118.797773249221        115.959514650784         108.62714240915   -0.000398248659410766     0.00267114286105648      0.0675221668274461
3        117.398523472914        115.983973591762        108.653032478997   -0.000358925536789744   -0.000370545179210698     -0.0213081701579132
4          114.5736327824        115.987512686387        108.659414743451   -0.000496723045614027   -3.06975112196779e-05      -0.041482996002282
5        116.684199625405          114.7328493078        108.639978457636    0.000127194463558403    7.30407571655324e-05    -0.00446128679027428
6        115.247757907305        114.721223525149        108.629784916437     0.00039249901997446   -0.000290653854233528     0.00454120691668705
7        115.249454620019        117.200134960379        108.633966754991     0.00138933253893165   -0.000539642586554358      0.0787590718720082
8        116.695467771443        117.221332176604        108.653731730021   -0.000960977578381775   -0.000843975028089553     -0.0652124240222554
9         114.47524559007        113.505934910488        108.614342669313   -0.000377624098863111     0.00109791828898933      0.0419832679138017
10          117.4372698259        113.528117747055        108.633570343169   -0.000279718392295029   -0.000120933310217164      0.0150296726159047
11        114.542527211412        118.451009312532        108.686517660639    -0.00161451741685485   -0.000546905128087156      -0.102404055426043
12        117.410031563362        118.378672266886        108.611225452707    0.000348108729016624    -0.00204494753706513       0.115555000763936
13        113.108508171907        113.543641499568        108.638050911671   -0.000414452365784663   -0.000392345493054194     -0.0221400978515583
14        113.112226338051        118.394332292211        108.646631529937     -0.0007244249704978    -0.00110206444268652      0.0542958704132721
15        118.869749443017        113.586973510421        108.675635216849   -0.000180020879991597   -0.000249577938483823      0.0188291223660259
16        118.873673675261        118.437870374345        108.684421903764     0.00197031103572811     0.00114413635963451     -0.0833554242642153
17        112.408784255257        117.176308360758        108.638842417118      0.0107972766406298     0.00758119173327747       0.241328142265088
18        112.407095168344        114.749145924668        108.634720109605       0.010382318169548    -0.00348178542692059       0.236845241412285
19        119.590591621019        114.822397536599        108.700824424327    -0.00511838232487177    -0.00441863134969258      -0.182156140276006
20        119.521252608104        117.178531876035        108.633918633075    -0.00108108637795374     0.00104981153357076     -0.0951955080080855
21        120.936136904184        114.805436967383         108.63785588156     0.00946074755911844     0.00653342368110748       0.329332759599572
22        120.909307829021        117.114804696346         108.61337046677    -0.00272225660989577    -0.00587938968309562       0.325025474095082
23        111.062640197397        114.856473353728        108.698868524236    -0.00482407105344494     0.00952017481437131      -0.611301467251362
24        111.060908242156        117.190938201284         108.69948022901    -0.00370011456591363     -0.0201434013174289      -0.663812897424973
25         121.55742825038        115.962698867759        108.627555789641    0.000340484722189526   -0.000199017663916442      -0.204632297100672
26        110.399136683566        115.993196087758        108.669300109094    -0.00535478939915786     0.00118999720376591       0.394205010784778
27        121.620811846926        118.197537942029        108.668469801102     0.00220149943675039     0.00416767234449887      -0.110325345538955
28         121.61805514517        113.802574428164        108.661306858469    -0.00199238190820455    -0.00394574581517387       -0.11080131591884
29        110.329123752992         118.14393448956        108.626163002264    -0.00359996353128954      0.0157047203996172       0.240065513987673
30        110.335459958464        113.758063884933        108.628092968203    -0.00314793175220671     -0.0102298790416661       0.191107078854888
31        112.607873211766        112.623461189617        108.664860389523   -2.79774481264645e-05   -2.42631910329161e-05    -0.00135522964948065
32        112.642168546982        119.399548367592        108.705919046383    -0.00020564648926602     0.00089321230338946     -0.0167748146693695
33        119.417243667964        112.659193869643        108.693784135012    3.53118414324805e-05   -9.21293076810017e-07    -0.00111234102416084
34        119.392261374839        119.376003428085        108.675565167696   -5.35192565450891e-05    0.000250791687669048      0.0234309278358237
35        114.969347174124        112.576021165137        108.663914601257    0.000341610711754496   -0.000790194558187622     -0.0182281210258459
36        114.927352719204        119.373649756663        108.628781610522     0.00128510449285701     0.00153866616250076      0.0331539240504048
37        116.986574919889        112.539607905607        108.625436995868    9.87160294212376e-05    5.39283610875826e-06    -0.00612560626336335
38        117.046216274385        119.438872307439        108.691939816854    -0.00113168425587369     0.00220255148050052     -0.0340319747612332
39                     100                     100              105.656854                       0                       0                       0
40                     100                     100              102.828427                       0                       0                       0
41                     100                     100                     100                       0                       0                       0
42                     102                     102              105.656854                       0                       0                       0
43                     102                     102              102.828427                       0                       0                       0
44                     102                     102                     100                       0                       0                       0
45                     104                     100              105.656854                       0                       0                       0
46                     104                     100              102.828427                       0                       0                       0
47                     104                     100                     100                       0                       0                       0
48                     106                     102              105.656854                       0                       0                       0
49                     106                     102              102.828427                       0                       0                       0
50                     106                     102                     100                       0                       0                       0
51                     108                     100              105.656854                       0                       0                       0
52                     108                     100              102.828427                       0                       0                       0
53                     108                     100                     100                       0                       0                       0
54                     110                     102              105.656854                       0                       0                       0
55                     110                     102              102.828427                       0                       0                       0
56                     110                     102                     100                       0                       0                       0
57                     112                     100              105.656854                       0                       0                       0
58                     112                     100              102.828427                       0                       0                       0
59                     112                     100                     100                       0                       0                       0
60                     114                     102              105.656854                       0                       0                       0
61                     114                     102              102.828427                       0                       0                       0
62                     114                     102                     100                       0                       0                       0
63                     116                     100              105.656854                       0                       0                       0
64                     116                     100              102.828427                       0                       0                       0
65                     116                     100                     100                       0                       0                       0
66                     118                     102              105.656854                       0                       0                       0
67                     118                     102              102.828427                       0                       0                       0
68                     118                     102                     100                       0                       0                       0
69                     120                     100              105.656854                       0                       0                       0
70                     120                     100              102.828427                       0                       0                       0
71                     120                     100                     100                       0                       0                       0
72                     122                     102              105.656854                       0                       0                       0
73                     122                     102              102.828427                       0                       0                       0
74                     122                     102                     100                       0                       0                       0
75                     124                     100              105.656854                       0                       0                       0
76                     124                     100              102.828427                       0                       0                       0
77                     124                     100                     100                       0                       0                       0
78                     126                     102              105.656854                       0                       0                       0
79                     126                     102              102.828427                       0                       0                       0
80                     126                     102                     100                       0                       0                       0
81                     128                     100              105.656854                       0                       0                       0
82                     128                     100              102.828427                       0                       0                       0
83                     128                     100                     100                       0                       0                       0
84                     130                     102              105.656854                       0                       0                       0
85                     130                     102              102.828427                       0                       0                       0
86                     130                     102                     100                       0                       0                       0
87                     100                     104              105.656854                       0                       0                       0
88                     100                     104              102.828427                       0                       0                       0
89                     100                     104                     100                       0                       0                       0
90                     102                     106              105.656854                       0                       0                       0
91                     102                     106              102.828427                       0                       0                       0
92                     102                     106                     100                       0                       0                       0
93                     104                     104              105.656854                       0                       0                       0
94                     104                     104              102.828427                       0                       0                       0
95                     104                     104                     100                       0                       0                       0
96                     106                     106              105.656854                       0                       0                       0
97                     106                     106              102.828427                       0                       0                       0
98                     106                     106                     100                       0                       0                       0
99                     108                     104              105.656854                       0                       0                       0
100                     108                     104              102.828427                       0                       0                       0
101                     108                     104                     100                       0                       0                       0
102                     110                     106              105.656854                       0                       0                       0
103                     110                     106              102.828427                       0                       0                       0
104                     110                     106                     100                       0                       0                       0
105                     112                     104              105.656854                       0                       0                       0
106                     112                     104              102.828427                       0                       0                       0
107                     112                     104                     100                       0                       0                       0
108                     114                     106              105.656854                       0                       0                       0
109                     114                     106              102.828427                       0                       0                       0
110                     114                     106                     100                       0                       0                       0
111                     116                     104              105.656854                       0                       0                       0
112                     116                     104              102.828427                       0                       0                       0
113                     116                     104                     100                       0                       0                       0
114                     118                     106              105.656854                       0                       0                       0
115                     118                     106              102.828427                       0                       0                       0
116                     118                     106                     100                       0                       0                       0
117                     120                     104              105.656854                       0                       0                       0
118                     120                     104              102.828427                       0                       0                       0
119                     120                     104                     100                       0                       0                       0
120                     122                     106              105.656854                       0                       0                       0
121                     122                     106              102.828427                       0                       0                       0
122                     122                     106                     100                       0                       0                       0
123                     124                     104              105.656854                       0                       0                       0
124                     124                     104              102.828427                       0                       0                       0
125                     124                     104                     100                       0                       0                       0
126                     126                     106              105.656854                       0                       0                       0
127                     126                     106              102.828427                       0                       0                       0
128                     126                     106                     100                       0                       0                       0
129                     128                     104              105.656854                       0                       0                       0
130                     128                     104              102.828427                       0                       0                       0
131                     128                     104                     100                       0                       0                       0
132                     130                     106              105.656854                       0                       0                       0
133                     130                     106              102.828427                       0                       0                       0
134                     130                     106                     100                       0                       0                       0
135                     100                     108              105.656854                       0                       0                       0
136                     100                     108              102.828427                       0                       0                       0
137                     100                     108                     100                       0                       0                       0
138                     102                     110              105.656854                       0                       0                       0
139                     102                     110              102.828427                       0                       0                       0
140                     102                     110                     100                       0                       0                       0
141                     104                     108              105.656854                       0                       0                       0
142                     104                     108              102.828427                       0                       0                       0
143                     104                     108                     100                       0                       0                       0
144                     106                     110              105.656854                       0                       0                       0
145                     106                     110              102.828427                       0                       0                       0
146                     106                     110                     100                       0                       0                       0
147                     108                     108              105.656854                       0                       0                       0
148                     108                     108              102.828427                       0                       0                       0
149                     108                     108                     100                       0                       0                       0
150                     110                     110              105.656854                       0                       0                       0
151                     110                     110              102.828427                       0                       0                       0
152                     110                     110                     100                       0                       0                       0
153                     112                     108              105.656854                       0                       0                       0
154                     112                     108              102.828427                       0                       0                       0
155                     112                     108                     100                       0                       0                       0
156                     114                     110              105.656854                       0                       0                       0
157                     114                     110              102.828427                       0                       0                       0
158                     114                     110                     100                       0                       0                       0
159                     116                     108              105.656854                       0                       0                       0
160                     116                     108              102.828427                       0                       0                       0
161                     116                     108                     100                       0                       0                       0
162                     118                     110              105.656854                       0                       0                       0
163                     118                     110              102.828427                       0                       0                       0
164                     118                     110                     100                       0                       0                       0
165                     120                     108              105.656854                       0                       0                       0
166                     120                     108              102.828427                       0                       0                       0
167                     120                     108                     100                       0                       0                       0
168                     122                     110              105.656854                       0                       0                       0
169                     122                     110              102.828427                       0                       0                       0
170                     122                     110                     100                       0                       0                       0
171                     124                     108              105.656854                       0                       0                       0
172                     124                     108              102.828427                       0                       0                       0
173                     124                     108                     100                       0                       0                       0
174                     126                     110              105.656854                       0                       0                       0
175                     126                     110              102.828427                       0                       0                       0
176                     126                     110                     100                       0                       0                       0
177                     128                     108              105.656854                       0                       0                       0
178                     128                     108              102.828427                       0                       0                       0
179                     128                     108                     100                       0                       0                       0
180                     130                     110              105.656854                       0                       0                       0
181                     130                     110              102.828427                       0                       0                       0
182                     130                     110                     100                       0                       0                       0
183                     100                     112              105.656854                       0                       0                       0
184                     100                     112              102.828427                       0                       0                       0
185                     100                     112                     100                       0                       0                       0
186                     102                     114              105.656854                       0                       0                       0
187                     102                     114              102.828427                       0                       0                       0
188                     102                     114                     100                       0                       0                       0
189                     104                     112              105.656854                       0                       0                       0
190                     104                     112              102.828427                       0                       0                       0
191                     104                     112                     100                       0                       0                       0
192                     106                     114              105.656854                       0                       0                       0
193                     106                     114              102.828427                       0                       0                       0
194                     106                     114                     100                       0                       0                       0
195                     108                     112              105.656854                       0                       0                       0
196                     108                     112              102.828427                       0                       0                       0
197                     108                     112                     100                       0                       0                       0
198                     110                     114              105.656854                       0                       0                       0
199                     110                     114              102.828427                       0                       0                       0
200                     110                     114                     100                       0                       0                       0
201                     112                     112              105.656854                       0                       0                       0