ITEM: TIMESTEP
0
ITEM: NUMBER OF ATOMS
422
ITEM: BOX BOUNDS ff ff ff
0.0000000000000000e+00 2.3200000000000000e+02
0.0000000000000000e+00 2.3200000000000000e+02
0.0000000000000000e+00 2.3200000000000000e+02
ITEM: ATOMS id xu yu zu fx fy fz
1        113.190602758324        116.028191380163        108.701524564485   -0.000116966042419832   -0.000344191480119877     -0.0472886222112897
2        118.847882112513        116.009623514077        108.677251272442    0.000370683231660934    7.24128183681603e-06     -0.0109752204371916
3        117.393557285086        115.979007403934        108.648066291169    0.000223845482062191   -0.000436221977989276     -0.0128683121799769
4        114.585362287492        115.999242191479        108.671144248543    0.000630761949514368    1.32449758905309e-05      0.0408211893102699
5        116.709059284188        114.757708966583        108.664838116419    2.69174732903234e-05   -3.53068446078231e-05    -0.00250828472737743
6        115.295986139865        114.769451757709        108.678013148998   -3.13996711581359e-06   -1.47622636382026e-05     -0.0160271920817458
7        115.285522400051        117.236202740411        108.670034535024    -0.00179987540091392    0.000429883013886175     -0.0487258199130864
8        116.650838250708        117.176702655869        108.609102209286    0.000292674234289076     -0.0020544258370087      0.0978389934468303
9        114.517339529941        113.548028850358        108.656436609183    -7.2918046933336e-05    1.85364402236226e-05     0.00181497667760909
10        117.457098100363        113.547946021518        108.653398617632   -0.000622971072324335   -0.000598203917150722      0.0253067886314432
11        114.525590234458        118.434072335578        108.669580683685   -8.15566303514219e-05   -0.000262853646632747    -0.00668858563566059
12        117.494803686403        118.463444389926        108.695997575748   -0.000257433897157764     0.00239338642772035      -0.111834326781477
13        113.127310071424        113.562443399086        108.656852811188    9.04292095975852e-05    0.000310542503704583     -0.0112443721679595
14        113.137218086659        118.419324040819        108.671623278545    0.000240065006565531   -0.000130150279793583     -0.0200494356760335
15        118.889634934201        113.606859001605        108.695520708033    -0.00079833886635624     0.00202704695210875     -0.0636835783554977
16        118.830108247399        118.394304946483        108.640856475903     0.00150344791703841    -0.00110426839247437      0.0830783231950679
17         112.43624299663        117.203767102131        108.666301158491    0.000239354765944769   -0.000129816348790366      0.0847730658474591
18        112.440920982572        114.782971738896        108.668545923832     0.00610946510739524     -0.0055258714468684      -0.175596591295144
19         119.56297685597         114.79478277155        108.673209659278     -0.0111101459836902     0.00297179406511431      -0.226095701305405
20        119.549536921452        117.206816189383        108.662202946424    -0.00155584520597687    -0.00308970571327338      -0.127616057400578
21        120.908297096979        114.777597160178        108.610016074355     0.00186705152024809    -0.00892477796622207       0.699067626976701
22        120.939824996902        117.145321864227        108.643887634651    -0.00206833275397981     0.00824331918571026       0.325632038146113
23        110.984148229343        114.777981385675        108.620376556182     0.00778909154543013      0.0190212217999252       0.636703479350892
24        111.043372620483        117.173402579612        108.681944607338   -0.000390964705883347     0.00216139947562456      -0.144139428395758
25        121.634315070998        116.039585688377        108.704442610259     0.00610829327607559     0.00738892193395543      -0.304543840966454
26         110.38031529619        115.974374700383        108.650478721718    -0.00625841551875723    0.000814583375806083       -0.15617570525135
27        121.601996187169        118.178722282271        108.649654141345     0.00193675701953184   -0.000632773679322376       -0.10900119423122
28        121.605196529415        113.789715812409        108.648448242715     0.00518129887214181    -0.00634651145735485      -0.257087876047652
29        110.392631184988        118.207441921557        108.689670434261   -0.000114135930496187   -0.000439559382778849      0.0492178661856877
30        110.404879053931          113.8274829804        108.697512063671    -0.00779089159703659     -0.0156078300408695      -0.250834428199329
31        112.557927196965        112.573515174816        108.614914374723   -9.45569016056493e-05   -0.000222243789931411     0.00652437858991895
32        112.580569767201        119.337949587811        108.644320266602   -0.000101709759440193    0.000156644426531516     0.00734402999519347
33        119.343453302434        112.585403504113        108.619993769482    0.000827746826235836    -0.00152470030918415      0.0255943146101648
34         119.39941174583        119.383153799076        108.682715538687    0.000129112533138428    0.000779208970770669     -0.0201634737458541
35        114.927913185125        112.534587176137        108.622480612258    2.54187481333011e-05   -0.000103004565217992     0.00338159376117392
36        114.931270895517        119.377567932976        108.632699786835    0.000156419800897071    0.000261432828484832     0.00840861360247236
37        116.981949516537        112.534982502255        108.620811592515    4.25805845907782e-05    3.53643606400102e-05    -0.00172016044659507
38        117.025387384038        119.418043417092        108.671110926507   -0.000553216823342519    0.000493407321294925      0.0293609291256384
39                     100                     100              105.656854                       0                       0                       0
40                     100                     100              102.828427                       0                       0                       0
41                     100                     100                     100                       0                       0                       0
42                     102                     102              105.656854                       0                       0                       0
43                     102                     102              102.828427                       0                       0                       0
44                     102                     102                     100                       0                       0                       0
45                     104                     100              105.656854                       0                       0                       0
46                     104                     100              102.828427                       0                       0                       0
47                     104                     100                     100                       0                       0                       0
48                     106                     102              105.656854                       0                       0                       0
49                     106                     102              102.828427                       0                       0                       0
50                     106                     102                     100                       0                       0                       0
51                     108                     100              105.656854                       0                       0                       0
52                     108                     100              102.828427                       0                       0                       0
53                     108                     100                     100                       0                       0                       0
54                     110                     102              105.656854                       0                       0                       0
55                     110                     102              102.828427                       0                       0                       0
56                     110                     102                     100                       0                       0                       0
57                     112                     100              105.656854                       0                       0                       0
58                     112                     100              102.828427                       0                       0                       0
59                     112                     100                     100                       0                       0                       0
60                     114                     102              105.656854                       0                       0                       0
61                     114                     102              102.828427                       0                       0                       0
62                     114                     102                     100                       0                       0                       0
63                     116                     100              105.656854                       0                       0                       0
64                     116                     100              102.828427                       0                       0                       0
65                     116                     100                     100                       0                       0                       0
66                     118                     102              105.656854                       0                       0                       0
67                     118                     102              102.828427                       0                       0                       0
68                     118                     102                     100                       0                       0                       0
69                     120                     100              105.656854                       0                       0                       0
70                     120                     100              102.828427                       0                       0                       0
71                     120                     100                     100                       0                       0                       0
72                     122                     102              105.656854                       0                       0                       0
73                     122                     102              102.828427                       0                       0                       0
74                     122                     102                     100                       0                       0                       0
75                     124                     100              105.656854                       0                       0                       0
76                     124                     100              102.828427                       0                       0                       0
77                     124                     100                     100                       0                       0                       0
78                     126                     102              105.656854                       0                       0                       0
79                     126                     102              102.828427                       0                       0                       0
80                     126                     102                     100                       0                       0                       0
81                     128                     100              105.656854                       0                       0                       0
82                     128                     100              102.828427                       0                       0                       0
83                     128                     100                     100                       0                       0                       0
84                     130                     102              105.656854                       0                       0                       0
85                     130                     102              102.828427                       0                       0                       0
86                     130                     102                     100                       0                       0                       0
87                     100                     104              105.656854                       0                       0                       0
88                     100                     104              102.828427                       0                       0                       0
89                     100                     104                     100                       0                       0                       0
90                     102                     106              105.656854                       0                       0                       0
91                     102                     106              102.828427                       0                       0                       0
92                     102                     106                     100                       0                       0                       0
93                     104                     104              105.656854                       0                       0                       0
94                     104                     104              102.828427                       0                       0                       0
95                     104                     104                     100                       0                       0                       0
96                     106                     106              105.656854                       0                       0                       0
97                     106                     106              102.828427                       0                       0                       0
98                     106                     106                     100                       0                       0                       0
99                     108                     104              105.656854                       0                       0                       0
100                     108                     104              102.828427                       0                       0                       0
101                     108                     104                     100                       0                       0                       0
102                     110                     106              105.656854                       0                       0                       0
103                     110                     106              102.828427                       0                       0                       0
104                     110                     106                     100                       0                       0                       0
105                     112                     104              105.656854                       0                       0                       0
106                     112                     104              102.828427                       0                       0                       0
107                     112                     104                     100                       0                       0                       0
108                     114                     106              105.656854                       0                       0                       0
109                     114                     106              102.828427                       0                       0                       0
110                     114                     106                     100                       0                       0                       0
111                     116                     104              105.656854                       0                       0                       0
112                     116                     104              102.828427                       0                       0                       0
113                     116                     104                     100                       0                       0                       0
114                     118                     106              105.656854                       0                       0                       0
115                     118                     106              102.828427                       0                       0                       0
116                     118                     106                     100                       0                       0                       0
117                     120                     104              105.656854                       0                       0                       0
118                     120                     104              102.828427                       0                       0                       0
119                     120                     104                     100                       0                       0                       0
120                     122                     106              105.656854                       0                       0                       0
121                     122                     106              102.828427                       0                       0                       0
122                     122                     106                     100                       0                       0                       0
123                     124                     104              105.656854                       0                       0                       0
124                     124                     104              102.828427                       0                       0                       0
125                     124                     104                     100                       0                       0                       0
126                     126                     106              105.656854                       0                       0                       0
127                     126                     106              102.828427                       0                       0                       0
128                     126                     106                     100                       0                       0                       0
129                     128                     104              105.656854                       0                       0                       0
130                     128                     104              102.828427                       0                       0                       0
131                     128                     104                     100                       0                       0                       0
132                     130                     106              105.656854                       0                       0                       0
133                     130                     106              102.828427                       0                       0                       0
134                     130                     106                     100                       0                       0                       0
135                     100                     108              105.656854                       0                       0                       0
136                     100                     108              102.828427                       0                       0                       0
137                     100                     108                     100                       0                       0                       0
138                     102                     110              105.656854                       0                       0                       0
139                     102                     110              102.828427                       0                       0                       0
140                     102                     110                     100                       0                       0                       0
141                     104                     108              105.656854                       0                       0                       0
142                     104                     108              102.828427                       0                       0                       0
143                     104                     108                     100                       0                       0                       0
144                     106                     110              105.656854                       0                       0                       0
145                     106                     110              102.828427                       0                       0                       0
146                     106                     110                     100                       0                       0                       0
147                     108                     108              105.656854                       0                       0                       0
148                     108                     108              102.828427                       0                       0                       0
149                     108                     108                     100                       0                       0                       0
150                     110                     110              105.656854                       0                       0                       0
151                     110                     110              102.828427                       0                       0                       0
152                     110                     110                     100                       0                       0                       0
153                     112                     108              105.656854                       0                       0                       0
154                     112                     108              102.828427                       0                       0                       0
155                     112                     108                     100                       0                       0                       0
156                     114                     110              105.656854                       0                       0                       0
157                     114                     110              102.828427                       0                       0                       0
158                     114                     110                     100                       0                       0                       0
159                     116                     108              105.656854                       0                       0                       0
160                     116                     108              102.828427                       0                       0                       0
161                     116                     108                     100                       0                       0                       0
162                     118                     110              105.656854                       0                       0                       0
163                     118                     110              102.828427                       0                       0                       0
164                     118                     110                     100                       0                       0                       0
165                     120                     108              105.656854                       0                       0                       0
166                     120                     108              102.828427                       0                       0                       0
167                     120                     108                     100                       0                       0                       0
168                     122                     110              105.656854                       0                       0                       0
169                     122                     110              102.828427                       0                       0                       0
170                     122                     110                     100                       0                       0                       0
171                     124                     108              105.656854                       0                       0                       0
172                     124                     108              102.828427                       0                       0                       0
173                     124                     108                     100                       0                       0                       0
174                     126                     110              105.656854                       0                       0                       0
175                     126                     110              102.828427                       0                       0                       0
176                     126                     110                     100                       0                       0                       0
177                     128                     108              105.656854                       0                       0                       0
178                     128                     108              102.828427                       0                       0                       0
179                     128                     108                     100                       0                       0                       0
180                     130                     110              105.656854                       0                       0                       0
181                     130                     110              102.828427                       0                       0                       0
182                     130                     110                     100                       0                       0                       0
183                     100                     112              105.656854                       0                       0                       0
184                     100                     112              102.828427                       0                       0                       0
185                     100                     112                     100                       0                       0                       0
186                     102                     114              105.656854                       0                       0                       0
187                     102                     114              102.828427                       0                       0                       0
188                     102                     114                     100                       0                       0                       0
189                     104                     112              105.656854                       0                       0                       0
190                     104                     112              102.828427                       0                       0                       0
191                     104                     112                     100                       0                       0                       0
192                     106                     114              105.656854                       0                       0                       0
193                     106                     114              102.828427                       0                       0                       0
194                     106                     114                     100                       0                       0                       0
195                     108                     112              105.656854                       0                       0                       0
196                     108                     112              102.828427                       0                       0                       0
197                     108                     112                     100                       0                       0                       0
198                     110                     114              105.656854                       0                       0                       0
199                     110                     114              102.828427                       0                       0                       0
200                     110                     114                     100                       0                       0                       0
201                     112                     112              105.656854                       0                       0                       0