ITEM: TIMESTEP
0
ITEM: NUMBER OF ATOMS
422
ITEM: BOX BOUNDS ff ff ff
0.0000000000000000e+00 2.3200000000000000e+02
0.0000000000000000e+00 2.3200000000000000e+02
0.0000000000000000e+00 2.3200000000000000e+02
ITEM: ATOMS id xu yu zu fx fy fz
1        113.145932193839        115.983520815677              110.856854     0.00299162255497529    -0.00121329019583385    -0.00439749542267778
2        118.827484840071        115.989226241634              110.856854    -0.00547020394489103    -0.00118209092974044    -0.00402436157035423
3        117.402344993917        115.987795112765              110.856854     0.00276785212526317     0.00260283928244589    -0.00478568013945227
4        114.571072038949        115.984951942936              110.856854      0.0025358110204761     0.00264462793944125     -0.0043950111016149
5        116.701075167769        114.749724850164              110.856854     0.00330310915618859     0.00439404827837316    -0.00462807648697576
6        115.274826990867        114.748292608712              110.856854      0.0036776968914179     0.00440530257984133    -0.00437206740583361
7        115.272341865028        117.223022205388              110.856854     0.00364859362890917     0.00259423995257907    -0.00482081091405821
8        116.698590041422        117.224454446583              110.856854     0.00323811510851901     0.00254736695476691    -0.00507232517034326
9        114.517756920757        113.548446241175              110.856854    -0.00336817889440348    -0.00575537218291878     -0.0049916934702121
10        117.460553482731        113.551401403886              110.856854     -0.0131853743859373    -0.00579604401775864     -0.0037108675841675
11        114.512863550773        118.421345651893              110.856854    -0.00330663763275675     -0.0109654083135427    -0.00282884909634136
12        117.455660110655        118.424300814179              110.856854     -0.0127827198623587     -0.0106673698789104     -0.0015893732387984
13        113.127311260236        113.562444587898              110.856854      0.0144353846476308    -0.00720314495011688    -0.00546941126952027
14        113.122448808114        118.404554762274              110.856854      0.0143480570623504    -0.00692058854276626    -0.00365162619355212
15        118.850968226168        113.568192293572              110.856854       -0.02870488000947    -0.00729596755418099    -0.00329039986255275
16        118.846105771496         118.41030247058              110.856854     -0.0282333342177007    -0.00645752710816698    -0.00153656954592051
17        112.426795838139         117.19431994364              110.856854     0.00355351910157634     0.00741222032255722    -0.00419126670738598
18         112.42922905874        114.771279815063              110.856854     0.00351261088740368     0.00115041193970206    -0.00365615477623287
19        119.546621196692        114.778427112272              110.856854     0.00535228352766743     0.00108468297531625    -0.00535122343733174
20        119.544187975028         117.20146724296              110.856854     0.00518029793483066     0.00713435052594801    -0.00586666786155582
21        120.955135022624        114.824435085822              110.856854       0.110592514629075       0.136628622156208     -0.0218013479078922
22        120.952791362251        117.158288229576              110.856854       0.108503440978784     -0.0457411080147431     -0.0272748376761782
23        111.020625673161        114.814458829493              110.856854    -0.00675438894504389        0.13764309825755     0.00646282194235832
24        111.018282013145        117.148311972274              110.856854    -0.00559015435701077     -0.0414751018452114     0.00063891176820239
25        121.586726460739        115.991997078118              110.856854     -0.0381857009364819     -0.0241063989210338     0.00944808656020377
26        110.386690574472        115.980749978664              110.856854     -0.0188896967044402     -0.0257481211437517    -0.00828796290849652
27        121.609196045824        118.185922140926              110.856854      -0.124440762099061     -0.0580436676132142      0.0340159186640993
28          121.6136022867        113.798121569695              110.856854      -0.130164132450982     -0.0523515750737958      0.0213824186876826
29        110.359814750727        118.174625487296              110.856854    -0.00204989744434104     -0.0660088306855475    -0.00541121128965871
30         110.36422099026         113.78682491673              110.856854    0.000695469264133489     -0.0518418875321296      -0.019083776174836
31        112.599866822243        112.615454800093              110.856854     -0.0297909712011513       0.012304288421356     0.00383804080396307
32        112.593103500599        119.350483321209              110.856854     -0.0292967946337596      0.0256660037931672    -0.00303008459532191
33        119.380313532952        112.622263734631              110.856854      0.0678979689329227      0.0129034857084125    -0.00309629448842483
34        119.373550207142        119.357292260389              110.856854      0.0659411147150331      0.0238284959664752    -0.00967800191133979
35        114.962286572867         112.56896056388              110.856854       0.012452018014279       0.007030070228333    0.000359871822799145
36        114.955425108682        119.401722146141              110.856854      0.0122182380738823       0.017857823082995    -0.00420310897639632
37        117.017991924022        112.571024909739              110.856854      0.0116680403066969      0.0071307607543153   -0.000934732781410432
38        117.011130457531        119.403786490585              110.856854      0.0109440561150067       0.017472679419196    -0.00543215694320298
39                     100                     100              105.656854       0.212147825543501       0.213820853766981      -0.975564470149513
40                     100                     100              102.828427       0.432020143217399       0.430632242441595   -0.000401515193971894
41                     100                     100                     100       0.212163767153323       0.213254493782925       0.976276880963833
42                     102                     102              105.656854      -0.344453800750659      -0.347220449500965       -0.27816779077796
43                     102                     102              102.828427     -0.0508926450349871     -0.0487260503269491    0.000674489925422267
44                     102                     102                     100      -0.344551725225962      -0.346149071779066       0.276974805041741
45                     104                     100              105.656854      0.0958560157301285       0.959888372875371      -0.808866022007377
46                     104                     100              102.828427     -0.0638942414842742       0.726914611089864   -0.000252652399454885
47                     104                     100                     100      0.0963119071145597       0.959276264635684       0.809302019047896
48                     106                     102              105.656854      -0.149358820561448      -0.514504132080673      -0.381522711326112
49                     106                     102              102.828427       0.142580787290722      0.0661460796495541    0.000268201503670266
50                     106                     102                     100      -0.150496035704682      -0.513516922143257       0.381049293911386
51                     108                     100              105.656854        0.10982545560769        1.06005072029328      -0.802004490259864
52                     108                     100              102.828427       -0.11191014836173       0.639884551981423    0.000327094451684907
53                     108                     100                     100       0.110943968796855        1.06005999654666       0.801400067671739
54                     110                     102              105.656854      -0.143883879965812      -0.582074479448059       -0.37353402147037
55                     110                     102              102.828427        0.14875098964013       0.135068170001416    -0.00104187445049946
56                     110                     102                     100      -0.146180976460378      -0.582855631499615       0.375424546759944
57                     112                     100              105.656854        0.13202264490743        1.10886753463264      -0.811028746704477
58                     112                     100              102.828427      -0.135874742058546       0.588940070021142     0.00123290224106818
59                     112                     100                     100       0.133183439490054        1.11027649345464       0.808795661825178
60                     114                     102              105.656854      -0.164307928003736      -0.620197852161778       -0.36069630159792
61                     114                     102              102.828427       0.169256807226819       0.176162136600785    -0.00253474486070814
62                     114                     102                     100      -0.165647378757046      -0.623598897396099       0.365337690810167
63                     116                     100              105.656854       0.166588506398355        1.14467964490586      -0.821713871521224
64                     116                     100              102.828427      -0.170771664049455        0.55143378618117     0.00171111295711061
65                     116                     100                     100       0.166587272924339        1.14692041648109       0.818617672032224
66                     118                     102              105.656854       -0.20898955573479      -0.652395125310341      -0.347264354660807
67                     118                     102              102.828427        0.21383196028637       0.209406765352035    -0.00253266677285074
68                     118                     102                     100      -0.207645967807384      -0.655790535798974       0.351901755259127
69                     120                     100              105.656854       0.222857011222652         1.1829501924239      -0.835596287597663
70                     120                     100              102.828427      -0.228213875272042       0.512433364531473     0.00123201415501931
71                     120                     100                     100       0.221697101055888        1.18435626035448       0.833364838423499
72                     122                     102              105.656854      -0.287971435715533      -0.688244432440724        -0.3300053709947
73                     122                     102              102.828427       0.292685436889105       0.244631859289225    -0.00104078743390417
74                     122                     102                     100      -0.285680701595561      -0.689021725995926       0.331893950508555
75                     124                     100              105.656854       0.326052943705971        1.23669379626175      -0.852202908272846
76                     124                     100              102.828427      -0.322605189082203       0.459500109796392    0.000328190637078339
77                     124                     100                     100       0.324938080837001         1.2367040164491       0.851596501535732
78                     126                     102              105.656854       -0.46140292310657      -0.727304234310929      -0.332090300575699
79                     126                     102              102.828427       0.396834107310024       0.281323930092029    0.000264323988190695
80                     126                     102                     100      -0.460270923554838      -0.726322963912171       0.331624105002533
81                     128                     100              105.656854       0.708174353033424        1.34053557084376      -0.754667002942541
82                     128                     100              102.828427      -0.280776532956281       0.396294806307394    -0.00024949732791988
83                     128                     100                     100       0.707719966513223        1.33992771006011       0.755097366824443
84                     130                     102              105.656854       -1.34063143999561      -0.708394963309646      -0.755607230065254
85                     130                     102              102.828427      -0.395869271295819        0.28061894037437    0.000668967916963422
86                     130                     102                     100       -1.34053308737181      -0.707330794217251       0.754424140323667
87                     100                     104              105.656854       0.958878138178491      0.0996002056390328      -0.808121777197223
88                     100                     104              102.828427       0.727870107969514     -0.0667247551433271    -0.00105530440578563
89                     100                     104                     100       0.958440329674451      0.0983167095488323       0.809999004695474
90                     102                     106              105.656854      -0.513182077687951      -0.155967243051001      -0.383303356972178
91                     102                     106              102.828427      0.0647891656212314       0.147096998940659     0.00194964566984797
92                     102                     106                     100      -0.512330266780997      -0.153391699493083       0.379768765743263
93                     104                     104              105.656854        0.24711280775025       0.251984901070208      -0.388211408264817
94                     104                     104              102.828427      -0.180042121524024      -0.183538240868031    -0.00114361040011656
95                     104                     104                     100       0.247527500521628       0.249887322786155       0.390283097093029
96                     106                     106              105.656854      -0.233110885721163      -0.242319361878087      -0.504913996927728
97                     106                     106              102.828427       0.225724703002275       0.231485699048735      0.0018447446567469
98                     106                     106                     100      -0.234756187008059      -0.238203639304194       0.501214043015838
99                     108                     104              105.656854       0.173962255215235       0.337739764879082      -0.375306431855053
100                     108                     104              102.828427      -0.178166713953306      -0.268119920206625    1.51790044507195e-05
101                     108                     104                     100       0.176913914552374       0.336442831662045       0.375360002220221
102                     110                     106              105.656854       -0.18511761502318      -0.292104026789801      -0.489479789056572
103                     110                     106              102.828427       0.194904257643711       0.285237370499229    -0.00145571885262954
104                     110                     106                     100      -0.192611832663921      -0.291847786768051       0.491939343599857
105                     112                     104              105.656854       0.168540621946383        0.38087037435216      -0.391616276544326
106                     112                     104              102.828427      -0.175635342512878      -0.315751162653011     0.00285492707214494
107                     112                     104                     100       0.172739211089741        0.38423623938009       0.386284391335539
108                     114                     106              105.656854      -0.190931765886823      -0.314633578475354      -0.466347685552403
109                     114                     106              102.828427       0.199553535482071       0.315819672351654    -0.00666027622156803
110                     114                     106                     100      -0.196218595891149      -0.324232231292879       0.479917761642012
111                     116                     104              105.656854       0.198196636398713       0.408741284827778      -0.407423577287732
112                     116                     104              102.828427      -0.203400875500575      -0.346883306978053     0.00460410937116405
113                     116                     104                     100       0.198188083246081       0.415467830714791       0.398671424102505
114                     118                     106              105.656854      -0.238296512806305      -0.336857474432978      -0.450459063875883
115                     118                     106              102.828427        0.24127036348253       0.338721794823044    -0.00664807096388824
116                     118                     106                     100      -0.232983250045143      -0.346424398895949       0.464000830434451
117                     120                     104              105.656854       0.258875582932799       0.437538622485037      -0.422334526731353
118                     120                     104              102.828427      -0.263359788946392      -0.374255741991941     0.00284831816562022
119                     120                     104                     100       0.254680487343126       0.440887160121016       0.417015865593023
120                     122                     106              105.656854      -0.315126910726326      -0.362092162376841       -0.43771149766256
121                     122                     106              102.828427       0.317045042898693       0.357493302708611    -0.00144735400930945
122                     122                     106                     100      -0.307666718353016      -0.361816142522396       0.440156205844858
123                     124                     104              105.656854       0.367275337552158       0.463043730096095      -0.438631062754014
124                     124                     104              102.828427       -0.36150411886284       -0.39732973770007    1.73697651048604e-05
125                     124                     104                     100       0.364339035893302       0.461750367020769        0.43867930867602
126                     126                     106              105.656854      -0.466120859849316      -0.366620889754104      -0.441821009983676
127                     126                     106              102.828427       0.400615899387437       0.359727905730375     0.00183283201743418
128                     126                     106                     100      -0.464490153726836      -0.362527744260142       0.438148951330851
129                     128                     104              105.656854       0.728056588113861       0.461481017256167      -0.330361389263698
130                     128                     104              102.828427      -0.282554985601776      -0.396225991776911     -0.0011347572122558
131                     128                     104                     100       0.727644005092284       0.459396984577135       0.332416283381948
132                     130                     106              105.656854       -1.23720753063151      -0.327227990370023      -0.854133040713409
133                     130                     106              102.828427      -0.458337195153339       0.322839036023188     0.00193569939402533
134                     130                     106                     100       -1.23805282606545      -0.324669964836218       0.850624877694266
135                     100                     108              105.656854        1.06204257977876       0.115765597323255      -0.799314094996741
136                     100                     108              102.828427       0.639062168239851      -0.116023293598774    -0.00232645745957445
137                     100                     108                     100        1.06017361882216       0.113600263358833       0.803504537497283
138                     102                     110              105.656854       -0.58696375625949      -0.153455013278913      -0.380003570750891
139                     102                     110              102.828427       0.136756700857144       0.154577823412246     0.00435082217189008
140                     102                     110                     100       -0.58303972891964      -0.149528134114163       0.371752225320764
141                     104                     108              105.656854       0.336226688934752       0.186192080152368      -0.370527561291451
142                     104                     108              102.828427      -0.266112561531287      -0.185328034982345    -0.00364368365514429
143                     104                     108                     100        0.33470189365126       0.180939458243074       0.377690521328417
144                     106                     110              105.656854      -0.290627114933796      -0.207568612514373      -0.503548925135607
145                     106                     110              102.828427       0.281901249315694       0.205428010085605     0.00634614723479449
146                     106                     110                     100      -0.289196036133357      -0.197675353293189        0.48796740258818
147                     108                     108              105.656854       0.223520486861426       0.241944996928827      -0.360456498919535
148                     108                     108              102.828427       -0.23133673227189      -0.240648520419362    -0.00229236648221769
149                     108                     108                     100       0.229902807939144       0.234685687061102       0.366820219578727
150                     110                     110              105.656854      -0.204210360037857      -0.238721938393395      -0.481192323327377
151                     110                     110              102.828427       0.225875550910868       0.239251264565409   -6.06030424071807e-05
152                     110                     110                     100      -0.226201216280013      -0.232069418628131       0.476114826518855
153                     112                     108              105.656854       0.188872384441823       0.262578472557012      -0.392307565090127
154                     112                     108              102.828427      -0.205240529864533      -0.272088183328689     0.00607049057728487
155                     112                     108                     100       0.204466843208154       0.268581038092637       0.379491288186781
156                     114                     110              105.656854      -0.198622916932339      -0.232980004677033      -0.422400772112846
157                     114                     110              102.828427       0.217555727950292       0.254928997811027     -0.0151759874782603
158                     114                     110                     100      -0.216593637405281      -0.252165158466932       0.464763183346735
159                     116                     108              105.656854       0.220226921061871       0.271508563908164      -0.420837183147113
160                     116                     108              102.828427      -0.226094834689791      -0.290562858603768      0.0121613417894145
161                     116                     108                     100       0.220180019610634       0.289233743310011       0.392711920173395
162                     118                     110              105.656854       -0.26419026312079      -0.244043183019206      -0.405203017989606
163                     118                     110              102.828427       0.257816927915724       0.266241346439264      -0.015126276930866
164                     118                     110                     100      -0.246083776106983       -0.26312358656816       0.447401893839561
165                     120                     108              105.656854       0.286164137262386       0.296244472717932      -0.427034051579227
166                     120                     108              102.828427      -0.282965795440712      -0.306744470616528      0.0060360977817963
167                     120                     108                     100       0.270588940709363       0.302162186672454       0.414305468074254
168                     122                     110              105.656854      -0.332391784733031      -0.272299829643094      -0.424850024354589
169                     122                     110              102.828427       0.323776896950052       0.273806514367721   -1.94699626636599e-05
170                     122                     110                     100      -0.310571247191965      -0.265549259944161        0.41968723253873
171                     124                     108              105.656854       0.373347382861345       0.311556398383408      -0.432823197344941
172                     124                     108              102.828427      -0.365632457816306      -0.312547813131123    -0.00228778649872516
173                     124                     108                     100        0.36702860647144       0.304313833933557       0.439153098741624
174                     126                     110              105.656854      -0.444789170476459      -0.263434482409794      -0.432122292598347
175                     126                     110              102.828427       0.381739344823427       0.263155581104802     0.00631655372581911
176                     126                     110                     100      -0.446244980394308      -0.253586187991345       0.416654872036338
177                     128                     108              105.656854       0.690286269449738       0.290295971285306      -0.325833221032527
178                     128                     108              102.828427      -0.247657162696168       -0.29285157335856    -0.00361984014982669
179                     128                     108                     100       0.691804467332677       0.285077247102449       0.332941691356199
180                     130                     110              105.656854       -1.18250624180814      -0.225808993621489      -0.839969357393611
181                     130                     110              102.828427       -0.51087410267664       0.229332149632379      0.0043220213432087
182                     130                     110                     100       -1.18640372613034      -0.221906198482704       0.831779039301778
183                     100                     112              105.656854        1.11600220453829       0.137202532985417      -0.805428434832714
184                     100                     112              102.828427       0.585318669374298      -0.139252750890793    -0.00392807023949231
185                     100                     112                     100        1.11176578460281       0.135233565314441       0.812626166197548
186                     102                     114              105.656854      -0.632872813119194      -0.169228621315149      -0.372483078982721
187                     102                     114              102.828427       0.181367313717853        0.17210966410328     0.00665380098278829
188                     102                     114                     100      -0.625250657982175      -0.167202908480655       0.359446201648339
189                     104                     112              105.656854       0.391568978719339       0.182358163225712      -0.375359532248165
190                     104                     112              102.828427      -0.318330642420791      -0.182752524548499    -0.00776671584156014
191                     104                     112                     100       0.384182230617601       0.176319290712007        0.39228489544785
192                     106                     114              105.656854      -0.330547650140881      -0.203779231355038       -0.50355424743966
193                     106                     114              102.828427       0.317454329027131        0.20535300896701      0.0115398464512368
194                     106                     114                     100      -0.323100617187028      -0.198816070384693       0.471448598246771
195                     108                     112              105.656854        0.25737605224207       0.221777754608589      -0.353416530969775
196                     108                     112              102.828427      -0.265553350030393      -0.217505412664129    -0.00804738565639977
197                     108                     112                     100       0.264549650581185       0.209628371185716       0.385259261269219
198                     110                     114              105.656854      -0.203766208845736      -0.217763339373586      -0.473871571953369
199                     110                     114              102.828427       0.243168044781095       0.226093655833488     0.00222242808479176
200                     110                     114                     100      -0.246720544745323      -0.219997198164078       0.458488760085661
201                     112                     112              105.656854       0.182301411175942       0.225389787672363      -0.418374448717333