ITEM: TIMESTEP
0
ITEM: NUMBER OF ATOMS
422
ITEM: BOX BOUNDS pp pp pp
0.0000000000000000e+00 3.2000000000000000e+01
0.0000000000000000e+00 3.2000000000000000e+01
0.0000000000000000e+00 3.2000000000000000e+01
ITEM: ATOMS id xu yu zu fx fy fz
1        13.1459321938386        15.9835208156773                10.75685    8.13832398034704e-05   -2.32142213992143e-06    -0.00486685095886552
2        18.8274848400711        15.9892262416344                10.75685   -8.05074569156682e-05    -1.5209260989572e-06    -0.00487015825642933
3         17.402344993917         15.987795112765                10.75685    6.73441023131587e-05   -1.75098789582873e-06    -0.00489665021597197
4         14.571072038949        15.9849519429358                10.75685   -6.52208485823177e-05   -2.16280446353913e-06    -0.00489937307309868
5        16.7010751677692        14.7497248501637                10.75685     8.0326638046682e-05   -7.94127881233123e-05    -0.00492409302158536
6        15.2748269908674        14.7482926087119                10.75685   -8.18016383894482e-05   -7.94762877302408e-05    -0.00492701114424549
7        15.2723418650276        17.2230222053877                10.75685   -8.17782907355176e-05    8.09210896695086e-05    -0.00492389767036606
8        16.6985900414216        17.2244544465825                10.75685    8.00200144244598e-05      8.068286395541e-05     -0.0049207481562419
9        14.5177569207574        13.5484462411751                10.75685   -6.60430007424415e-05     5.8982020566707e-05    -0.00504418714275631
10        17.4605534827313        13.5514014038861                10.75685    6.81547810721778e-05     5.8595762834723e-05    -0.00504247154429913
11        14.5128635507729         18.421345651893                10.75685    -6.5644742761095e-05   -5.56568480915878e-05    -0.00504694735109605
12        17.4556601106552        18.4243008141789                10.75685    6.86918123962996e-05   -5.58986975884489e-05    -0.00504389923827108
13        13.1273112602358        13.5624445878976                10.75685    8.94876727187957e-05    5.61886189900178e-05    -0.00500718914345036
14        13.1224488081137        18.4045547622743                10.75685    8.97581144071555e-05   -5.25368982212724e-05    -0.00500911496781687
15         18.850968226168        13.5681922935721                10.75685   -8.88163559828436e-05    5.56525840511421e-05     -0.0050102532399475
16        18.8461057714963        18.4103024705805                10.75685   -8.87298207971799e-05   -5.32993183645513e-05    -0.00501247102676924
17         12.426795838139        17.1943199436399                10.75685    5.58610228450898e-05    8.06204734510625e-05    -0.00489051837740305
18        12.4292290587396        14.7712798150634                10.75685    5.62723609319922e-05   -7.91246708013705e-05    -0.00489488659829427
19        19.5466211966922        14.7784271122721                10.75685   -5.88615552236441e-05   -7.95589877268558e-05    -0.00489599854700405
20        19.5441879750283        17.2014672429596                10.75685   -5.90327142980873e-05    8.04512468110196e-05    -0.00489376361651668
21        20.9551350226241        14.8244350858224                10.75685    8.91403632109886e-05   -8.43780064127656e-05    -0.00494589889941196
22        20.9527913622507        17.1582882295758                10.75685    8.90054601482882e-05    8.49923121156572e-05     -0.0049434950337477
23        11.0206256731611        14.8144588294926                10.75685   -8.93577491703843e-05   -8.41435708809336e-05    -0.00495015834136632
24        11.0182820131454        17.1483119722736                10.75685    -8.9121567419743e-05     8.5518941314489e-05     -0.0049459144138899
25        21.5867264607395        15.9919970781177                10.75685    3.15346500250026e-05   -7.58426902914778e-07    -0.00290252186470331
26        10.3866905744716        15.9807499786644                10.75685   -2.97721564629921e-05   -1.82731525780669e-06    -0.00290388584025767
27         21.609196045824        18.1859221409264                10.75685    3.48638713080603e-05   -1.72454423296369e-05    -0.00302160388478646
28        21.6136022867001        13.7981215696947                10.75685    3.45020843402169e-05    1.86835008719787e-05    -0.00302139475320889
29        10.3598147507275        18.1746254872963                10.75685   -3.24220616251532e-05     -1.625508503779e-05    -0.00302351835669412
30        10.3642209902605        13.7868249167297                10.75685   -3.27347740039513e-05    1.97177134930332e-05    -0.00302221545742635
31        12.5998668222426        12.6154548000933                10.75685    2.60340406156176e-05    2.64305311803257e-05    -0.00156817139121208
32        12.5931035005993        19.3504833212092                10.75685    2.59603284785812e-05   -2.73416664330668e-05    -0.00156948000155804
33        19.3803135329519        12.6222637346313                10.75685   -2.66363728159813e-05    2.66995467222249e-05    -0.00156941454759142
34        19.3735502071424         19.357292260389                10.75685   -2.69074129134398e-05   -2.72903563264475e-05    -0.00157071102137165
35        14.9622865728669        12.5689605638796                10.75685   -3.19144245649487e-05    2.68303796629748e-05    -0.00158932715971344
36         14.955425108682        19.4017221461408                10.75685   -3.20219165457337e-05   -2.78249159652972e-05    -0.00159113936797952
37        17.0179919240215        12.5710249097393                10.75685    3.19670182505207e-05    2.68139624015745e-05    -0.00158831320286673
38         17.011130457531        19.4037864905846                10.75685    3.20868470289671e-05    -2.7608335446235e-05    -0.00158914363260765
39                       0                       0                5.656854                       0                       0                       0
40                       0                       0                2.828427                       0                       0                       0
41                       0                       0                       0                       0                       0                       0
42                       2                       2                5.656854                       0                       0                       0
43                       2                       2                2.828427                       0                       0                       0
44                       2                       2                       0                       0                       0                       0
45                       4                       0                5.656854                       0                       0                       0
46                       4                       0                2.828427                       0                       0                       0
47                       4                       0                       0                       0                       0                       0
48                       6                       2                5.656854    5.79493982931028e-09    1.18909217493013e-08    5.25405024462357e-09
49                       6                       2                2.828427    8.28546374886786e-11    1.81018851552576e-10    1.26435190711742e-10
50                       6                       2                       0                       0                       0                       0
51                       8                       0                5.656854    1.50197517089022e-10    1.26641717560005e-11    2.12895890746085e-10
52                       8                       0                2.828427                       0                       0                       0
53                       8                       0                       0                       0                       0                       0
54                      10                       2                5.656854    2.56780587843084e-08    1.00537711132103e-07    4.51272213738077e-08
55                      10                       2                2.828427    4.62843579139147e-10    1.72932931029646e-09    1.22646375756655e-09
56                      10                       2                       0                       0                       0                       0
57                      12                       0                5.656854    4.27121943342152e-10    7.41628067630835e-11    1.35090345483488e-09
58                      12                       0                2.828427    3.30251279496544e-11    1.47015176392031e-11    4.38911137015329e-10
59                      12                       0                       0                       0                       0                       0
60                      14                       2                5.656854    1.61008378825816e-08    2.43063297622563e-07    1.10458804998671e-07
61                      14                       2                2.828427    3.10828729201391e-10    4.16664910936765e-09    2.97860946454677e-09
62                      14                       2                       0                       0                       0                       0
63                      16                       0                5.656854   -2.77762785713262e-12    1.01737206641776e-10    2.13495683722881e-09
64                      16                       0                2.828427   -1.34171201361117e-12     2.4269106308004e-11    9.02590937984181e-10
65                      16                       0                       0                       0                       0                       0
66                      18                       2                5.656854    -1.6487409538409e-08    2.41772204493508e-07    1.09848256327815e-07
67                      18                       2                2.828427   -3.17417851348256e-10    4.14702946020396e-09    2.96397520702459e-09
68                      18                       2                       0                       0                       0                       0
69                      20                       0                5.656854   -4.30133424995167e-10    5.46170069944466e-11    1.34433405795412e-09
70                      20                       0                2.828427   -3.44260796241934e-11     9.0508809956398e-12    4.38098045483242e-10
71                      20                       0                       0                       0                       0                       0
72                      22                       2                5.656854    -2.5463354774436e-08    9.89718325628479e-08    4.44015031105242e-08
73                      22                       2                2.828427   -4.59556034133159e-10    1.70533963264884e-09    1.20882642925154e-09
74                      22                       2                       0                       0                       0                       0
75                      24                       0                5.656854    -1.4956524357009e-10    7.26603648701707e-12    2.10661352360537e-10
76                      24                       0                2.828427                       0                       0                       0
77                      24                       0                       0                       0                       0                       0
78                      26                       2                5.656854   -5.67409122458919e-09    1.16019165555917e-08     5.1228541943582e-09
79                      26                       2                2.828427   -8.13050114616575e-11      1.769975805527e-10    1.23529925709808e-10
80                      26                       2                       0                       0                       0                       0
81                      28                       0                5.656854                       0                       0                       0
82                      28                       0                2.828427                       0                       0                       0
83                      28                       0                       0                       0                       0                       0
84                      30                       2                5.656854                       0                       0                       0
85                      30                       2                2.828427                       0                       0                       0
86                      30                       2                       0                       0                       0                       0
87                       0                       4                5.656854                       0                       0                       0
88                       0                       4                2.828427                       0                       0                       0
89                       0                       4                       0                       0                       0                       0
90                       2                       6                5.656854    3.39368906474536e-08    3.07902197451839e-08    1.95060959700515e-08
91                       2                       6                2.828427    5.83287284426023e-10    5.30385659739195e-10    5.30117060246072e-10
92                       2                       6                       0                       0                       0                       0
93                       4                       4                5.656854    3.86303674014029e-09    5.30674299829632e-09    2.74259525167396e-09
94                       4                       4                2.828427    1.61457321280303e-09     2.2444337964947e-09    1.86733073914205e-09
95                       4                       4                       0                       0                       0                       0
96                       6                       6                5.656854    9.10400900555176e-07    1.33453256922022e-06    8.61101546801118e-07
97                       6                       6                2.828427    1.32458558571572e-08    1.92021666412997e-08    1.91608613067953e-08
98                       6                       6                       0    2.66916210773146e-09     3.9000770537711e-09    5.38721795024288e-09
99                       8                       4                5.656854    3.93570054808623e-08    9.19102680378977e-08    4.87035947575673e-08
100                       8                       4                2.828427    2.07762750452035e-08    4.85726938646678e-08    4.00053835247607e-08
101                       8                       4                       0    7.07561653359986e-11    1.98011069816721e-10    2.29354468722311e-10
102                      10                       6                5.656854    4.84681352967311e-06    1.42793957796654e-05    9.64625420153252e-06
103                      10                       6                2.828427     5.4120749393127e-08    1.55863353685701e-07    1.60892242628307e-07
104                      10                       6                       0    9.94198020070406e-09    2.93199796168962e-08    4.11096554188228e-08
105                      12                       4                5.656854    7.27030182786064e-08     4.2669471874276e-07    2.32962688455588e-07
106                      12                       4                2.828427    3.48371506359311e-08    1.99311502273079e-07    1.67667913568876e-07
107                      12                       4                       0    1.90741596399833e-10    1.18180206401424e-09    1.38643415390517e-09
108                      14                       6                5.656854    2.68307691206383e-06    3.70091626338513e-05    2.57985111228683e-05
109                      14                       6                2.828427     2.9713469189353e-08     3.6025972895048e-07    3.82001474193595e-07
110                      14                       6                       0    5.55849399955976e-09    6.52137562907644e-08    9.30282853291628e-08
111                      16                       4                5.656854   -6.57651844268297e-10    6.29640043367198e-07    3.47193390230127e-07
112                      16                       4                2.828427   -3.03068139650045e-10    2.88572861852691e-07    2.44790039115116e-07
113                      16                       4                       0   -1.95025392038794e-12     1.8198288086715e-09    2.14526244184803e-09
114                      18                       6                5.656854   -2.75436935526377e-06     3.6812231005874e-05      2.565073593057e-05
115                      18                       6                2.828427   -3.04176720751652e-08    3.58652365368038e-07     3.8015856125151e-07
116                      18                       6                       0   -5.69304120422655e-09    6.49730616393746e-08    9.26517445705342e-08
117                      20                       4                5.656854   -7.28105617287926e-08    4.22023951983966e-07    2.30294856837736e-07
118                      20                       4                2.828427     -3.492843327055e-08    1.97420969665717e-07    1.65997329576605e-07
119                      20                       4                       0   -1.91754827199482e-10    1.17244886038496e-09    1.37471429127596e-09
120                      22                       6                5.656854   -4.79887362711968e-06    1.40380229045941e-05    9.47458853335692e-06
121                      22                       6                2.828427   -5.37229767802147e-08    1.53648791895786e-07    1.58475013053248e-07
122                      22                       6                       0   -9.89603931829279e-09     2.8975744980197e-08    4.05922910693794e-08
123                      24                       4                5.656854   -3.87059853692307e-08    8.99554331292798e-08    4.76318843991426e-08
124                      24                       4                2.828427   -2.04848337585992e-08    4.76635022340723e-08    3.92272899990354e-08
125                      24                       4                       0   -7.00298858579873e-11    1.94888424451929e-10    2.25517934379256e-10
126                      26                       6                5.656854   -8.88907729641711e-07    1.29872746239417e-06    8.37107614281437e-07
127                      26                       6                2.828427   -1.29796560004763e-08    1.87559511034401e-08    1.86965624000033e-08
128                      26                       6                       0    -2.6250486503832e-09    3.82375148583367e-09    5.27584995424548e-09
129                      28                       4                5.656854   -3.76003674820369e-09    5.15255090991503e-09    2.66056624392779e-09
130                      28                       4                2.828427   -1.57632515043572e-09    2.18617534931908e-09    1.81702091492046e-09
131                      28                       4                       0                       0                       0                       0
132                      30                       6                5.656854   -3.28789872220639e-08    2.97848711155303e-08     1.8847522066926e-08
133                      30                       6                2.828427   -5.67033303501093e-10    5.14885804622061e-10    5.13988335024402e-10
134                      30                       6                       0                       0                       0                       0
135                       0                       8                5.656854    1.20241230606827e-10    4.07520967295199e-09    3.34561023286037e-09
136                       0                       8                2.828427    4.40925378731982e-11     1.6227004511932e-09    2.22109947872131e-09
137                       0                       8                       0                       0                       0                       0
138                       2                      10                5.656854    9.16170705599181e-07     4.6959872141932e-07     5.3715812148243e-07
139                       2                      10                2.828427    1.40008612612226e-08     7.2296375583207e-09    1.25489437156705e-08
140                       2                      10                       0    2.82607079537219e-09     1.4708119776934e-09    3.54788327072672e-09
141                       4                       8                5.656854    2.71915323983753e-07    2.41038941151225e-07    1.99474132671629e-07
142                       4                       8                2.828427    1.21668406026981e-07    1.07486632022391e-07    1.36414880482831e-07
143                       4                       8                       0    6.96230419264726e-10    6.38490963413411e-10    1.11017792614547e-09
144                       6                      10                5.656854    4.76909689413845e-05    4.05297140495935e-05    4.87603259757232e-05
145                       6                      10                2.828427    3.76426003181557e-07    3.17008411432312e-07    5.73010820566827e-07
146                       6                      10                       0    6.10225248058067e-08    5.10170472356597e-08    1.21844879083508e-07
147                       8                       8                5.656854    4.36477010783542e-06    7.17076997553472e-06    6.20284601928057e-06
148                       8                       8                2.828427    1.23928681995093e-06     1.9664228295223e-06    2.58901940427196e-06
149                       8                       8                       0    6.62805435589235e-09    1.03679695906532e-08    1.81854704079057e-08
150                      10                      10                5.656854     0.00032889036623586    0.000641101804445148    0.000834981498800828
151                      10                      10                2.828427    1.64096296831286e-06    3.00887557170158e-06    5.78630835750509e-06
152                      10                      10                       0    1.96094520186854e-07    3.43615141424822e-07    8.58279024426112e-07
153                      12                       8                5.656854    9.14441607907311e-06    4.09373884656513e-05    3.79869668132397e-05
154                      12                       8                2.828427    2.00719429545586e-06     8.4558665827107e-06    1.17387709154627e-05
155                      12                       8                       0    9.17785254829392e-09    3.67100872139162e-08    6.71524594468901e-08
156                      14                      10                5.656854    0.000125674508307677     0.00159695843301352      0.0022745402839021
157                      14                      10                2.828427    6.96725234011382e-07    6.48178037601949e-06    1.32943756305714e-05
158                      14                      10                       0    9.01636385996145e-08    6.83588412195603e-07    1.78723089930218e-06
159                      16                       8                5.656854   -6.70005750986389e-08    5.85421910337173e-05    5.55866619514518e-05
160                      16                       8                2.828427   -1.42437296853974e-08    1.17567734276984e-05    1.66612596777414e-05
161                      16                       8                       0   -6.35246655507753e-11    5.01256246453148e-08    9.32924790465377e-08
162                      18                      10                5.656854   -0.000130155449463348     0.00159133288367018     0.00226439842479892
163                      18                      10                2.828427    -7.1457238042368e-07    6.46271844964334e-06     1.3245108142182e-05
164                      18                      10                       0     -9.207135981077e-08     6.8182768617599e-07    1.78149635788465e-06
165                      20                       8                5.656854   -9.16205273407648e-06    4.04971333155373e-05    3.75390641935245e-05
166                      20                       8                2.828427   -2.01376803568319e-06    8.38357336404352e-06    1.16278798099746e-05
167                      20                       8                       0   -9.21711462790715e-09    3.64527793392735e-08    6.66272952134821e-08
168                      22                      10                5.656854   -0.000325949284633475    0.000631088128119152     0.00082028395155773
169                      22                      10                2.828427   -1.63144264186955e-06    2.97214082637045e-06    5.70628918574288e-06
170                      22                      10                       0    -1.9535189604576e-07    3.40182291999725e-07    8.48518567127827e-07
171                      24                       8                5.656854   -4.28484549291354e-06    7.00695741624596e-06     6.0525566660263e-06
172                      24                       8                2.828427   -1.22147241168538e-06    1.92964775071922e-06     2.5374206265459e-06
173                      24                       8                       0   -6.53479607738194e-09    1.01261181313811e-08    1.77972519052904e-08
174                      26                      10                5.656854   -4.64768121708703e-05    3.93962337847429e-05     4.7300713184796e-05
175                      26                      10                2.828427   -3.68842334530363e-07    3.09812601156784e-07    5.59040732245827e-07
176                      26                      10                       0     -5.937636331021e-08    4.96015043485092e-08    1.18548991436359e-07
177                      28                       8                5.656854   -2.63938444836242e-07    2.33504670677261e-07      1.929625237196e-07
178                      28                       8                2.828427   -1.18621125893077e-07    1.04583467745047e-07    1.32556552742685e-07
179                      28                       8                       0   -6.81782453153145e-10    6.24022675569569e-10    1.08340615572584e-09
180                      30                      10                5.656854   -8.84734681256496e-07    4.53529448214017e-07    5.17905509310662e-07
181                      30                      10                2.828427   -1.36007867565449e-08    7.01537041640015e-09    1.21576838690447e-08
182                      30                      10                       0   -2.75805355937947e-09    1.43450454447703e-09    3.45310787239844e-09
183                       0                      12                5.656854    1.29932002533928e-09    1.98952322537353e-08    3.51031090097538e-08
184                       0                      12                2.828427    6.40525763293932e-10    1.14373537316681e-08    3.04957666910969e-08
185                       0                      12                       0                       0                       0                       0
186                       2                      14                5.656854    4.78706374118704e-06     7.1589263521511e-07     2.8093074877846e-06
187                       2                      14                2.828427    6.16007718098179e-08    9.71065776983426e-09     5.5668989545367e-08
188                       2                      14                       0     1.2056412332352e-08    2.07201173950007e-09    1.50353091270292e-08
189                       4                      12                5.656854    4.59952936097709e-06    1.79932914154124e-06    3.44853788224966e-06
190                       4                      12                2.828427    1.37050417601225e-06    5.56053826998801e-07    1.56350421418449e-06
191                       4                      12                       0    7.50800037383931e-09    3.14705985417606e-09    1.15179886838825e-08
192                       6                      14                5.656854     0.00039176537629219    8.90684035749685e-05    0.000409862816971632
193                       6                      14                2.828427    2.09156820542022e-06    5.23404354704067e-07    3.26250067309902e-06
194                       6                      14                       0    2.57650988964306e-07    6.75928466273635e-08    5.24711766789313e-07
195                       8                      12                5.656854    0.000128129035621613    9.97756971857437e-05     0.00020915576503757
196                       8                      12                2.828427    1.75128033254577e-05    1.34394093666514e-05    4.02803330477902e-05
197                       8                      12                       0     5.9884070920561e-08    4.53588431641473e-08    1.73339494962622e-07
198                      10                      14                5.656854     0.00278403232901048     0.00169744201986509     0.00892482313808297
199                      10                      14                2.828427    8.77642565148959e-06      5.227973183612e-06    3.60184161512951e-05
200                      10                      14                       0    7.86573682026112e-07    4.53604476968627e-07    3.78129200730716e-06
201                      12                      12                5.656854    0.000211569289431895    0.000543878564752157     0.00132635843265566