ITEM: TIMESTEP
0
ITEM: NUMBER OF ATOMS
422
ITEM: BOX BOUNDS ff ff ff
0.0000000000000000e+00 2.3200000000000000e+02
0.0000000000000000e+00 2.3200000000000000e+02
0.0000000000000000e+00 2.3200000000000000e+02
ITEM: ATOMS id xu yu zu fx fy fz
1        113.145932193839        115.983520815677              109.956854     0.00296030944269088    -0.00126734441138425     -0.0116628668978947
2        118.827484840071        115.989226241634              109.956854    -0.00556210500777396     -0.0012347795850073     -0.0113060144664769
3        117.402344993917        115.987795112765              109.956854      0.0031741260724347     0.00271814843394824     -0.0118399708028575
4        114.571072038949        115.984951942936              109.956854     0.00238702731223389     0.00276119318203882     -0.0114784110871716
5        116.701075167769        114.749724850164              109.956854     0.00372978881622313     0.00421648830936988     -0.0115541207275229
6        115.274826990867        114.748292608712              109.956854     0.00356955118642947     0.00423175095289485     -0.0113094991923284
7        115.272341865028        117.223022205388              109.956854     0.00353462123209103     0.00310031961088575     -0.0117275951616472
8        116.698590041422        117.224454446583              109.956854     0.00366430434777515     0.00305470842618558     -0.0119687165512119
9        114.517756920757        113.548446241175              109.956854    -0.00319761003229286    -0.00661855119778028     -0.0101782162535233
10        117.460553482731        113.551401403886              109.956854     -0.0141500627841151    -0.00665634159645459    -0.00900321531533311
11        114.512863550773        118.421345651893              109.956854     -0.0031345758939306     -0.0109458151999538    -0.00809777466933933
12        117.455660110655        118.424300814179              109.956854     -0.0137327142745565     -0.0106320265576076    -0.00698440871162817
13        113.127311260236        113.562444587898              109.956854      0.0134909875359667     -0.0078908681678351     -0.0113454316775623
14        113.122448808114        118.404554762274              109.956854      0.0133949769954273    -0.00694824302706666    -0.00961208906696623
15        118.850968226168        113.568192293572              109.956854     -0.0284775834019309    -0.00798449487090368    -0.00925029770923154
16        118.846105771496         118.41030247058              109.956854      -0.027979936863835     -0.0064516592934096    -0.00757052279530004
17        112.426795838139         117.19431994364              109.956854     0.00399948180792885     0.00806042480578356     -0.0111326627381882
18         112.42922905874        114.771279815063              109.956854     0.00395417090139588    0.000910204425464051     -0.0106426403977077
19        119.546621196692        114.778427112272              109.956854     0.00536419046389629    0.000841520637626242     -0.0122352806825515
20        119.544187975028         117.20146724296              109.956854     0.00518057533752676     0.00776389539892822     -0.0127123538380127
21        120.955135022624        114.824435085822              109.956854       0.118090709383785       0.134798731459861     -0.0284983653741732
22        120.952791362251        117.158288229576              109.956854       0.115880738619998     -0.0396907598478932     -0.0335299907467541
23        111.020625673161        114.814458829493              109.956854    -0.00808871768860109       0.135893228339327    -0.00203137259381186
24        111.018282013145        117.148311972274              109.956854    -0.00688050286823455     -0.0351845125480103    -0.00730611294807043
25        121.586726460739        115.991997078118              109.956854     -0.0414800984389128     -0.0251736219226778     0.00380318477802284
26        110.386690574472        115.980749978664              109.956854     -0.0192917237670635     -0.0268656203589627     -0.0128970810901574
27        121.609196045824        118.185922140926              109.956854      -0.131692387090754     -0.0593026679581067      0.0366321996101614
28          121.6136022867        113.798121569695              109.956854      -0.137703025651131     -0.0564825869648258      0.0247344164835644
29        110.359814750727        118.174625487296              109.956854    -0.00306799992188436     -0.0677835180962922   -0.000450842808622009
30         110.36422099026         113.78682491673              109.956854   -0.000152363117156884     -0.0560344719173736     -0.0134226291917916
31        112.599866822243        112.615454800093              109.956854      -0.027600150160835      0.0145170298838477     0.00269358841472316
32        112.593103500599        119.350483321209              109.956854     -0.0270898560443149      0.0253744612672493    -0.00383053007146045
33        119.380313532952        112.622263734631              109.956854      0.0676511884362923      0.0151511027468903    -0.00388982578739251
34        119.373550207142        119.357292260389              109.956854      0.0655807674385839      0.0234435446595884     -0.0101435675800066
35        114.962286572867         112.56896056388              109.956854      0.0119077750490076     0.00846924193929122    -0.00184391253063021
36        114.955425108682        119.401722146141              109.956854      0.0116633088235456      0.0176795142850426    -0.00619028202963579
37        117.017991924022        112.571024909739              109.956854      0.0133330739190884     0.00857708585981831    -0.00302991696741823
38        117.011130457531        119.403786490585              109.956854       0.012572578599285       0.017276707220535    -0.00728579283209815
39                     100                     100              105.656854       0.212155644091826       0.213905994240247      -0.975602698318388
40                     100                     100              102.828427       0.432020468442007       0.430537591890499    -0.00040063661101957
41                     100                     100                     100       0.212151690880129       0.213334967551894       0.976299367901939
42                     102                     102              105.656854      -0.344466182387698      -0.347405096075428      -0.278112795534316
43                     102                     102              102.828427     -0.0509042913566611     -0.0485438357945188    0.000698155617765999
44                     102                     102                     100      -0.344515347460076      -0.346284012128297       0.276917300395373
45                     104                     100              105.656854      0.0958036243390241       0.959994903950547      -0.808884376876035
46                     104                     100              102.828427     -0.0638212989608782       0.726810088802051   -0.000271155458593611
47                     104                     100                     100      0.0962327069773063       0.959351935171448       0.809334523658918
48                     106                     102              105.656854      -0.149204491978822         -0.514715177137      -0.381520502179732
49                     106                     102              102.828427        0.14239353154373      0.0663176363763464      0.0003250505009836
50                     106                     102                     100      -0.150320887625588      -0.513615604436714       0.380990070033127
51                     108                     100              105.656854       0.109659797089983        1.06006587676116      -0.801966500237996
52                     108                     100              102.828427      -0.111724445986609       0.639883605725047    0.000300712512118749
53                     108                     100                     100       0.110781079161953        1.06004587951065       0.801409391871233
54                     110                     102              105.656854      -0.143482097429691      -0.581954712632516      -0.373630215610045
55                     110                     102              102.828427       0.148362644844705       0.134938232326861    -0.00103057838036927
56                     110                     102                     100      -0.145888551087673      -0.582744156122798       0.375461704241845
57                     112                     100              105.656854       0.131832411714569        1.10862705007565      -0.810919072604212
58                     112                     100              102.828427      -0.135679438971765       0.589177732450543      0.0012330237969747
59                     112                     100                     100       0.133028121655538        1.11009338522028       0.808740642374193
60                     114                     102              105.656854       -0.16405459468887       -0.61949924448335      -0.360864554573849
61                     114                     102              102.828427       0.169028652707682       0.175581695882604    -0.00263976461927501
62                     114                     102                     100      -0.165488832231617       -0.62322194067083       0.365517458656963
63                     116                     100              105.656854       0.166588739021691        1.14427746883772      -0.821570492941032
64                     116                     100              102.828427       -0.17077187427343       0.551814086704233     0.00173388852060216
65                     116                     100                     100       0.166587418921389        1.14664292025155        0.81852320244957
66                     118                     102              105.656854      -0.209243715355703      -0.651697848585008      -0.347432591124129
67                     118                     102              102.828427       0.214060818538405       0.208827288038371     -0.0026374349993864
68                     118                     102                     100      -0.207804988206162      -0.655414127837438       0.352081295667146
69                     120                     100              105.656854       0.223047054726858        1.18271025444313      -0.835486659363487
70                     120                     100              102.828427      -0.228409024248508       0.512670536508589     0.00123207281969605
71                     120                     100                     100        0.22185233173466        1.18417349911045        0.83330989917836
72                     122                     102              105.656854       -0.28837181052781      -0.688125260436888      -0.330101467221507
73                     122                     102              102.828427       0.293072683613394       0.244502567863088    -0.00102949769781656
74                     122                     102                     100      -0.285972492646014      -0.688910789397418       0.331931053729421
75                     124                     100              105.656854       0.326217972575356        1.23670863883784      -0.852164864894484
76                     124                     100              102.828427      -0.322790271719884       0.459499340275431    0.000301918372976895
77                     124                     100                     100       0.325100508328385        1.23668988177522       0.851605694228884
78                     126                     102              105.656854      -0.461556445334521      -0.727513647549418      -0.332088187744429
79                     126                     102              102.828427       0.397020481718789       0.281494437896012    0.000320680794986518
80                     126                     102                     100      -0.460445362817411      -0.726421242467152       0.331565369978454
81                     128                     100              105.656854       0.708226583920642        1.34064124332231       -0.75468512262064
82                     128                     100              102.828427      -0.280849232554486       0.396191022861102    -0.00026785193669261
83                     128                     100                     100       0.707798905209121        1.34000293719948       0.755129593555144
84                     130                     102              105.656854       -1.34061934433932      -0.708578122590369      -0.755552615338721
85                     130                     102              102.828427      -0.395857528184699       0.280799902055908    0.000692315330693904
86                     130                     102                     100       -1.34056937411927      -0.707464991994908       0.754367154801265
87                     100                     104              105.656854       0.958981448941383      0.0998176426207968      -0.808211541005153
88                     100                     104              102.828427        0.72779089050201     -0.0669423916396915    -0.00107902977681713
89                     100                     104                     100        0.95847260352224      0.0984814821330163       0.810075371432645
90                     102                     106              105.656854      -0.513453282252429      -0.156496133215281      -0.383192327305714
91                     102                     106              102.828427      0.0649449688493895       0.147539589891142     0.00209226984166985
92                     102                     106                     100      -0.512359992176273      -0.153670025336822        0.37957285037438
93                     104                     104              105.656854       0.247122138912028        0.25242633282809      -0.388266365158324
94                     104                     104              102.828427      -0.179980211939349      -0.183899865950675    -0.00125223063227634
95                     104                     104                     100       0.247421258805003       0.250106756109834       0.390417544259535
96                     106                     106              105.656854      -0.233022511867176      -0.243486318891259      -0.505014346468973
97                     106                     106              102.828427       0.225450264462505       0.232190696890391     0.00221469557910023
98                     106                     106                     100      -0.234456504218278      -0.238522833342189       0.500937097916304
99                     108                     104              105.656854        0.17345440255615       0.338126376376462      -0.375231628980345
100                     108                     104              102.828427      -0.177668229802301      -0.268346280668779   -0.000108502874016472
101                     108                     104                     100        0.17653334094273       0.336524841673533       0.375432412158377
102                     110                     106              105.656854      -0.183340776549285      -0.292422742613139      -0.489693585421104
103                     110                     106              102.828427       0.193632255771123       0.285279959726977    -0.00137319496741939
104                     110                     106                     100      -0.191859592801037      -0.291773060251798       0.491985975043396
105                     112                     104              105.656854       0.167639458803024       0.380095548675959      -0.391485502069101
106                     112                     104              102.828427      -0.174918568851334      -0.315179692381716     0.00302477604149715
107                     112                     104                     100       0.172289926230281       0.383888659414312       0.386065673900665
108                     114                     106              105.656854      -0.189525055447698      -0.311568992476565      -0.465959399748491
109                     114                     106              102.828427       0.198655250977511       0.314227739890468    -0.00757586170423709
110                     114                     106                     100      -0.195753325179147      -0.323489613871259       0.480599230747392
111                     116                     104              105.656854        0.19819873675438       0.407046879895467       -0.40731315672551
112                     116                     104              102.828427      -0.203402334472663      -0.345737066835725      0.0050164739125965
113                     116                     104                     100       0.198188894449601       0.414844115909334       0.398252349521605
114                     118                     106              105.656854      -0.239710699977551      -0.333804524330261      -0.450073640472562
115                     118                     106              102.828427       0.242173078615822       0.337135039555026    -0.00756074747308365
116                     118                     106                     100      -0.233450834699322      -0.345683874787689       0.464680744137043
117                     120                     104              105.656854       0.259775429424556       0.436768384687434      -0.422203500079135
118                     120                     104              102.828427       -0.26407595585051      -0.373687210422129     0.00301721396603143
119                     120                     104                     100       0.255129656351535       0.440541141758773       0.416797886099982
120                     122                     106              105.656854       -0.31689218059371      -0.362414525207852      -0.437924706153471
121                     122                     106              102.828427       0.318311351084335       0.357539303878036    -0.00136438279249215
122                     122                     106                     100      -0.308416737204105      -0.361743652273871       0.440202036050815
123                     124                     104              105.656854       0.367779798527135       0.463428061288161      -0.438556849748002
124                     124                     104              102.828427      -0.361999958063907      -0.397555488171404   -0.000105378052113634
125                     124                     104                     100       0.364718060767938        0.46183262084364       0.438751245731427
126                     126                     106              105.656854      -0.466207774875845      -0.367777913746012      -0.441918730932791
127                     126                     106              102.828427       0.400887757908647        0.36042916645978     0.00219911053625318
128                     126                     106                     100      -0.464787825354691       -0.36284628123285       0.437873896815027
129                     128                     104              105.656854       0.728047534608898       0.461918722352641      -0.330416259755004
130                     128                     104              102.828427      -0.282616559665731      -0.396585251888938    -0.00124214491361288
131                     128                     104                     100       0.727749659900872       0.459615434445043       0.332549606344257
132                     130                     106              105.656854       -1.23693897942244      -0.327752158619996      -0.854022170818152
133                     130                     106              102.828427      -0.458491834758222        0.32327857494182     0.00207643915467405
134                     130                     106                     100       -1.23802315609054      -0.324946961807054       0.850430701362273
135                     100                     108              105.656854        1.06248179679098       0.116183378418846       -0.79947268598198
136                     100                     108              102.828427        0.63873337096613      -0.116394042443025    -0.00244967100459867
137                     100                     108                     100        1.06033443778437       0.113848591603335       0.803710234677868
138                     102                     110              105.656854      -0.588206942867688      -0.154412560366728      -0.379941391397503
139                     102                     110              102.828427       0.137439913274539       0.155251968315501     0.00486347272533489
140                     102                     110                     100      -0.583263272788386      -0.149892311701664       0.371259056836031
141                     104                     108              105.656854       0.337023090821365       0.187630707228422      -0.370436741410385
142                     104                     108              102.828427      -0.266378800597286      -0.186225188755873    -0.00421064231787976
143                     104                     108                     100        0.33465901555962       0.181373406931897       0.378150884646893
144                     106                     110              105.656854      -0.292982898928803      -0.211689269389053      -0.505629376995756
145                     106                     110              102.828427       0.282045998417996       0.207021768292884     0.00821285021698892
146                     106                     110                     100       -0.28883168753668      -0.198219003474801       0.487055754097058
147                     108                     108              105.656854       0.222500056118584       0.245172651363428      -0.359273012603737
148                     108                     108              102.828427      -0.230227405969308      -0.241803269878373    -0.00327883514627203
149                     108                     108                     100       0.229131858356188       0.235022071939282       0.367244292559733
150                     110                     110              105.656854      -0.195816574514608      -0.243925758205505      -0.485060585263685
151                     110                     110              102.828427        0.22234840318825       0.240169911259702     0.00130239911308763
152                     110                     110                     100      -0.224601472953447      -0.232144255244382       0.475934179878741
153                     112                     108              105.656854       0.183679914348791       0.260435104564218      -0.393158618909556
154                     112                     108              102.828427      -0.202658471147012      -0.271096266715876     0.00695032752583237
155                     112                     108                     100       0.203294336734317       0.268101291602237       0.378891190959146
156                     114                     110              105.656854      -0.191299816508244      -0.220576017917211      -0.409739016168857
157                     114                     110              102.828427       0.214682496169906       0.252259535093863     -0.0191790923412744
158                     114                     110                     100      -0.215496843853404      -0.251218324948458       0.466560339572155
159                     116                     108              105.656854       0.220243725933777       0.264063187314435      -0.423924469068761
160                     116                     108              102.828427      -0.226102562475211      -0.287717822271438      0.0147915716157539
161                     116                     108                     100       0.220183229288863        0.28815960308434       0.391313787772429
162                     118                     110              105.656854      -0.271582475780125      -0.231701275331567      -0.392604419488687
163                     118                     110              102.828427       0.260710648325327       0.263587085929108     -0.0191107378763568
164                     118                     110                     100      -0.247188453041099      -0.262181527192434       0.449192409507786
165                     120                     108              105.656854       0.291344031410554       0.294138239355447      -0.427869163529843
166                     120                     108              102.828427      -0.285545033085439      -0.305766152896273     0.00690627267986456
167                     120                     108                     100       0.271761443136189       0.301687458173295       0.413709747410317
168                     122                     110              105.656854      -0.340673717372264      -0.277540267932995      -0.428721697073338
169                     122                     110              102.828427       0.327279901229873       0.274740595488483     0.00135002090445694
170                     122                     110                     100      -0.312164844432731      -0.265630490508651       0.419501417911376
171                     124                     108              105.656854       0.374349837659625       0.314761325169544      -0.431656416368506
172                     124                     108              102.828427      -0.366730863304717      -0.313701148283792    -0.00326760063838308
173                     124                     108                     100       0.367794750899837       0.304651843712873       0.439575994469495
174                     126                     110              105.656854      -0.442449092938365       -0.26751656733318        -0.4341633426539
175                     126                     110              102.828427       0.381588630655648         0.2647435494228     0.00816555944808641
176                     126                     110                     100      -0.446604266520298      -0.254130350745036       0.415747973576453
177                     128                     108              105.656854       0.689497424647843       0.291720609464387      -0.325747000246027
178                     128                     108              102.828427      -0.247391810703772      -0.293743117880123    -0.00418023146050343
179                     128                     108                     100       0.691846164615392       0.285509843405901       0.333398505943414
180                     130                     110              105.656854        -1.1812755777901      -0.226757800979889      -0.839904213069383
181                     130                     110              102.828427      -0.511552895285466       0.230002191153861      0.0048281859934885
182                     130                     110                     100       -1.18618052853162      -0.222269228275281       0.831289988509973
183                     100                     112              105.656854        1.11706242668009       0.137616798663286      -0.805625206042435
184                     100                     112              102.828427       0.584579378736141      -0.139591097427169    -0.00423515793888723
185                     100                     112                     100        1.11211793163619       0.135442240554798       0.813014782095212
186                     102                     114              105.656854      -0.635413700384071      -0.169748527726281      -0.372604202803503
187                     102                     114              102.828427       0.182674184305794       0.172457393372222     0.00761602101428415
188                     102                     114                     100      -0.625685494278186       -0.16738033626644       0.358652079257387
189                     104                     112              105.656854       0.395220002761808       0.184355552440977      -0.374221056273037
190                     104                     112              102.828427      -0.319518373034344      -0.183761433050352    -0.00944460158540659
191                     104                     112                     100       0.384337182258906          0.176740657956       0.393310607110178
192                     106                     114              105.656854      -0.338080350006258      -0.205672876102192      -0.510391035332705
193                     106                     114              102.828427       0.318375309854416       0.206173767139303      0.0155983450180519
194                     106                     114                     100      -0.322743612926647      -0.199093660033681       0.469812875392943
195                     108                     112              105.656854       0.261190719419343       0.230640223986775      -0.338471189297297
196                     108                     112              102.828427      -0.263902598406092      -0.219148869004341     -0.0122080208985849
197                     108                     112                     100       0.263330779926997       0.210025575613796       0.386485687177911
198                     110                     114              105.656854      -0.178571731603685      -0.210963966689659      -0.485288432481018
199                     110                     114              102.828427       0.236963734477061        0.22619761688408     0.00565430333381584
200                     110                     114                     100      -0.244316187518946      -0.220024152274885       0.458001878167243
201                     112                     112              105.656854       0.159524411148921       0.225229084629098      -0.419674508532237