ITEM: TIMESTEP
0
ITEM: NUMBER OF ATOMS
422
ITEM: BOX BOUNDS ff ff ff
0.0000000000000000e+00 2.3200000000000000e+02
0.0000000000000000e+00 2.3200000000000000e+02
0.0000000000000000e+00 2.3200000000000000e+02
ITEM: ATOMS id xu yu zu fx fy fz
1        113.170783704167        116.008372326005        108.681705510328       0.213266275048684      -0.252922067252751      0.0279116900156066
2        118.809646820361        115.971388221924        108.639015980289        1.80809069365933        1.05315296003142      0.0346658964825142
3        117.415873631791        116.001323750639        108.670382637874       0.857084112129373      -0.623709650540459     0.00652710936740181
4        114.566307918703         115.98018782269        108.652089879754        1.63794045442734        1.15011114893975      0.0220900719266192
5        116.723196760739        114.771846443133         108.67897559297      0.0985081765939123        1.00840089135998     -0.0220958885834657
6        115.310915240683        114.784380858528        108.692942249816       -1.94944730173503      -0.779523093201006    0.000544010697585661
7        115.314573029786        117.265253370146        108.699085164758       -0.79696890521164       0.146750464976621     -0.0524912062186167
8        116.738796593358        117.264660998519        108.697060551937      -0.363107598881497      -0.489259797988502     0.00135241488692613
9        114.521368440562        113.552057760979        108.660465519804       0.501451144449195       -0.43425778375855     0.00982424612544234
10        117.477431955655         113.56827987681        108.673732472924       0.159536990820873       -1.54255761288381     0.00973239921269982
11        114.553318445536        118.461800546656        108.697308894763      -0.481683128516192        1.05274879854118     0.00735856097409333
12         117.47683769698        118.445478400504        108.678031586325       0.298097428711143      -0.164066188205957     0.00908128961449712
13         113.15212613986        113.587259467522        108.681668879624      -0.393954438460639      -0.513551093143482    -0.00142051134578362
14        113.151315853886        118.433421808047        108.685721045773      -0.411113849191452      -0.226809543527939    -0.00327723183215594
15        118.838325607232        113.555549674636        108.644211381064        1.23702356665197       0.759540226923089      0.0197118909173118
16        118.838981696053        118.403178395137        108.649729924557       0.961458721369809        1.24132849964225     -0.0271895298343361
17         112.47274386032        117.240267965821        108.702802022181      0.0893917336562635       -2.29715900233035     -0.0253112849384152
18        112.440312463451        114.782363219774        108.667937404711       0.717246852556908      -0.469059065258665     0.00113299818902902
19        119.567416818894        114.799222734474        108.677649622202        -2.0185354141693       0.728008044879958     -0.0064666922181115
20        119.570598704235        117.227877972167        108.683264729207       -1.77501593941529       -1.16995681835128    -0.00924238653995712
21        120.993640545169        114.862940608367        108.695359522545       -1.85895482118788        -1.2912986795185      -0.013698410161866
22        120.968908057546        117.174404924871        108.672970695295        0.92266144289587       0.701722799470755     -0.0148701122946188
23        110.996244511159         114.79007766749        108.632472837998        1.68011627273572        1.42384413238464     -0.0636701727589695
24        111.011763428993        117.141793388121        108.650335415848        1.95760253690695        1.93915275103365     -0.0214307560760665
25        121.621196832721        116.026467450099        108.691324371981       0.370969060214287       -0.60713958714197     -0.0262430099566344
26        110.396165596849        115.990225001042        108.666329022378       -2.59487581874022      -0.280852287274286       0.107728558067903
27        121.622504608771        118.199230703873        108.670162562947      -0.523682960650277       0.333965233474911    -0.00754824137367872
28        121.595545108378        113.780064391373        108.638796821678        1.16750840474712       0.648733978021697     0.00406699896247948
29        110.396250020542         118.21106075711        108.693289269814        -1.0997743954794      -0.631981785741369     -0.0272009445571141
30        110.383969670262        113.806573596731        108.676602680002     -0.0642438018667436      0.0416476065782717      0.0368396297542816
31        112.610192267074        112.625780244924        108.667179444831      -0.128753223469103      0.0725065070336109     0.00429506142122725
32        112.597979757784        119.355359578394        108.661730257184      0.0281130995879634      0.0168722901275763   -3.29807620217388e-05
33        119.417257424236        112.659207625915        108.693797891284      -0.448682581332805      -0.289707055986797     0.00161346254427393
34        119.342240489371        119.325982542618        108.625544282229       0.191971194336023      -0.104787694575229    -0.00361071847430753
35        114.994373318991        112.601047310004        108.688940746124       0.216728601647828       0.107716982799195     -0.0025885478230931
36        114.937974387712        119.384271425171         108.63940327903       0.875053128756333      -0.364736769207879      0.0023372133432784
37        117.023595759453        112.576628745171        108.662457835432      -0.664117785271883       0.303794921840154      0.0126045266631413
38        117.020233409403        119.412889442457        108.665956951872       -0.41690792832357      -0.196662662169929     0.00897059658290011
39                     100                     100              105.656854                       0                       0                       0
40                     100                     100              102.828427                       0                       0                       0
41                     100                     100                     100                       0                       0                       0
42                     102                     102              105.656854                       0                       0                       0
43                     102                     102              102.828427                       0                       0                       0
44                     102                     102                     100                       0                       0                       0
45                     104                     100              105.656854                       0                       0                       0
46                     104                     100              102.828427                       0                       0                       0
47                     104                     100                     100                       0                       0                       0
48                     106                     102              105.656854                       0                       0                       0
49                     106                     102              102.828427                       0                       0                       0
50                     106                     102                     100                       0                       0                       0
51                     108                     100              105.656854                       0                       0                       0
52                     108                     100              102.828427                       0                       0                       0
53                     108                     100                     100                       0                       0                       0
54                     110                     102              105.656854                       0                       0                       0
55                     110                     102              102.828427                       0                       0                       0
56                     110                     102                     100                       0                       0                       0
57                     112                     100              105.656854                       0                       0                       0
58                     112                     100              102.828427                       0                       0                       0
59                     112                     100                     100                       0                       0                       0
60                     114                     102              105.656854                       0                       0                       0
61                     114                     102              102.828427                       0                       0                       0
62                     114                     102                     100                       0                       0                       0
63                     116                     100              105.656854                       0                       0                       0
64                     116                     100              102.828427                       0                       0                       0
65                     116                     100                     100                       0                       0                       0
66                     118                     102              105.656854                       0                       0                       0
67                     118                     102              102.828427                       0                       0                       0
68                     118                     102                     100                       0                       0                       0
69                     120                     100              105.656854                       0                       0                       0
70                     120                     100              102.828427                       0                       0                       0
71                     120                     100                     100                       0                       0                       0
72                     122                     102              105.656854                       0                       0                       0
73                     122                     102              102.828427                       0                       0                       0
74                     122                     102                     100                       0                       0                       0
75                     124                     100              105.656854                       0                       0                       0
76                     124                     100              102.828427                       0                       0                       0
77                     124                     100                     100                       0                       0                       0
78                     126                     102              105.656854                       0                       0                       0
79                     126                     102              102.828427                       0                       0                       0
80                     126                     102                     100                       0                       0                       0
81                     128                     100              105.656854                       0                       0                       0
82                     128                     100              102.828427                       0                       0                       0
83                     128                     100                     100                       0                       0                       0
84                     130                     102              105.656854                       0                       0                       0
85                     130                     102              102.828427                       0                       0                       0
86                     130                     102                     100                       0                       0                       0
87                     100                     104              105.656854                       0                       0                       0
88                     100                     104              102.828427                       0                       0                       0
89                     100                     104                     100                       0                       0                       0
90                     102                     106              105.656854                       0                       0                       0
91                     102                     106              102.828427                       0                       0                       0
92                     102                     106                     100                       0                       0                       0
93                     104                     104              105.656854                       0                       0                       0
94                     104                     104              102.828427                       0                       0                       0
95                     104                     104                     100                       0                       0                       0
96                     106                     106              105.656854                       0                       0                       0
97                     106                     106              102.828427                       0                       0                       0
98                     106                     106                     100                       0                       0                       0
99                     108                     104              105.656854                       0                       0                       0
100                     108                     104              102.828427                       0                       0                       0
101                     108                     104                     100                       0                       0                       0
102                     110                     106              105.656854                       0                       0                       0
103                     110                     106              102.828427                       0                       0                       0
104                     110                     106                     100                       0                       0                       0
105                     112                     104              105.656854                       0                       0                       0
106                     112                     104              102.828427                       0                       0                       0
107                     112                     104                     100                       0                       0                       0
108                     114                     106              105.656854                       0                       0                       0
109                     114                     106              102.828427                       0                       0                       0
110                     114                     106                     100                       0                       0                       0
111                     116                     104              105.656854                       0                       0                       0
112                     116                     104              102.828427                       0                       0                       0
113                     116                     104                     100                       0                       0                       0
114                     118                     106              105.656854                       0                       0                       0
115                     118                     106              102.828427                       0                       0                       0
116                     118                     106                     100                       0                       0                       0
117                     120                     104              105.656854                       0                       0                       0
118                     120                     104              102.828427                       0                       0                       0
119                     120                     104                     100                       0                       0                       0
120                     122                     106              105.656854                       0                       0                       0
121                     122                     106              102.828427                       0                       0                       0
122                     122                     106                     100                       0                       0                       0
123                     124                     104              105.656854                       0                       0                       0
124                     124                     104              102.828427                       0                       0                       0
125                     124                     104                     100                       0                       0                       0
126                     126                     106              105.656854                       0                       0                       0
127                     126                     106              102.828427                       0                       0                       0
128                     126                     106                     100                       0                       0                       0
129                     128                     104              105.656854                       0                       0                       0
130                     128                     104              102.828427                       0                       0                       0
131                     128                     104                     100                       0                       0                       0
132                     130                     106              105.656854                       0                       0                       0
133                     130                     106              102.828427                       0                       0                       0
134                     130                     106                     100                       0                       0                       0
135                     100                     108              105.656854                       0                       0                       0
136                     100                     108              102.828427                       0                       0                       0
137                     100                     108                     100                       0                       0                       0
138                     102                     110              105.656854                       0                       0                       0
139                     102                     110              102.828427                       0                       0                       0
140                     102                     110                     100                       0                       0                       0
141                     104                     108              105.656854                       0                       0                       0
142                     104                     108              102.828427                       0                       0                       0
143                     104                     108                     100                       0                       0                       0
144                     106                     110              105.656854                       0                       0                       0
145                     106                     110              102.828427                       0                       0                       0
146                     106                     110                     100                       0                       0                       0
147                     108                     108              105.656854                       0                       0                       0
148                     108                     108              102.828427                       0                       0                       0
149                     108                     108                     100                       0                       0                       0
150                     110                     110              105.656854                       0                       0                       0
151                     110                     110              102.828427                       0                       0                       0
152                     110                     110                     100                       0                       0                       0
153                     112                     108              105.656854                       0                       0                       0
154                     112                     108              102.828427                       0                       0                       0
155                     112                     108                     100                       0                       0                       0
156                     114                     110              105.656854                       0                       0                       0
157                     114                     110              102.828427                       0                       0                       0
158                     114                     110                     100                       0                       0                       0
159                     116                     108              105.656854                       0                       0                       0
160                     116                     108              102.828427                       0                       0                       0
161                     116                     108                     100                       0                       0                       0
162                     118                     110              105.656854                       0                       0                       0
163                     118                     110              102.828427                       0                       0                       0
164                     118                     110                     100                       0                       0                       0
165                     120                     108              105.656854                       0                       0                       0
166                     120                     108              102.828427                       0                       0                       0
167                     120                     108                     100                       0                       0                       0
168                     122                     110              105.656854                       0                       0                       0
169                     122                     110              102.828427                       0                       0                       0
170                     122                     110                     100                       0                       0                       0
171                     124                     108              105.656854                       0                       0                       0
172                     124                     108              102.828427                       0                       0                       0
173                     124                     108                     100                       0                       0                       0
174                     126                     110              105.656854                       0                       0                       0
175                     126                     110              102.828427                       0                       0                       0
176                     126                     110                     100                       0                       0                       0
177                     128                     108              105.656854                       0                       0                       0
178                     128                     108              102.828427                       0                       0                       0
179                     128                     108                     100                       0                       0                       0
180                     130                     110              105.656854                       0                       0                       0
181                     130                     110              102.828427                       0                       0                       0
182                     130                     110                     100                       0                       0                       0
183                     100                     112              105.656854                       0                       0                       0
184                     100                     112              102.828427                       0                       0                       0
185                     100                     112                     100                       0                       0                       0
186                     102                     114              105.656854                       0                       0                       0
187                     102                     114              102.828427                       0                       0                       0
188                     102                     114                     100                       0                       0                       0
189                     104                     112              105.656854                       0                       0                       0
190                     104                     112              102.828427                       0                       0                       0
191                     104                     112                     100                       0                       0                       0
192                     106                     114              105.656854                       0                       0                       0
193                     106                     114              102.828427                       0                       0                       0
194                     106                     114                     100                       0                       0                       0
195                     108                     112              105.656854                       0                       0                       0
196                     108                     112              102.828427                       0                       0                       0
197                     108                     112                     100                       0                       0                       0
198                     110                     114              105.656854                       0                       0                       0
199                     110                     114              102.828427                       0                       0                       0
200                     110                     114                     100                       0                       0                       0
201                     112                     112              105.656854                       0                       0                       0