ITEM: TIMESTEP
0
ITEM: NUMBER OF ATOMS
422
ITEM: BOX BOUNDS pp pp pp
0.0000000000000000e+00 3.2000000000000000e+01
0.0000000000000000e+00 3.2000000000000000e+01
0.0000000000000000e+00 3.2000000000000000e+01
ITEM: ATOMS id xu yu zu fx fy fz
1        13.1459321938386        15.8835208156773                 8.65685    -0.00618077931491846     0.00386803602183353       0.008592657234646
2        18.8274848400711        15.8892262416344                 8.65685     0.00616276400854752     0.00378661105352295     0.00905727159413405
3         17.402344993917         15.887795112765                 8.65685    -0.00564063871231676      0.0047250581022648      0.0136280288861529
4         14.571072038949        15.8849519429358                 8.65685     0.00552056862850681     0.00494014600921729      0.0141685445782023
5        16.7010751677692        14.6497248501637                 8.65685      -0.025721185775756      0.0134534555378541      0.0443035688016936
6        15.2748269908674        14.6482926087119                 8.65685      0.0264052349195947      0.0139533298584006      0.0465420831481054
7        15.2723418650276        17.1230222053877                 8.65685      0.0212239714609687     -0.0151196402241678      0.0351634287390209
8        16.6985900414216        17.1244544465825                 8.65685     -0.0206221170471433     -0.0144408783646459      0.0331519465611255
9        14.5177569207574        13.4484462411751                 8.65685      0.0279486608724613      -0.029776590982235       0.137714392142458
10        17.4605534827313        13.4514014038861                 8.65685     -0.0287628024341675     -0.0292517608356215       0.135814316484033
11        14.5128635507729         18.321345651893                 8.65685      0.0315243553803158      0.0197375408355176       0.159162073205759
12        17.4556601106552        18.3243008141789                 8.65685     -0.0327276792246311      0.0194816664316256       0.155287626109326
13        13.1273112602358        13.4624445878976                 8.65685     -0.0348301541734539     -0.0214780984134754      0.0978777135216761
14        13.1224488081137        18.3045547622743                 8.65685     -0.0394013913557976      0.0136840793839139       0.112044689700154
15         18.850968226168        13.4681922935721                 8.65685      0.0349181578122504     -0.0218377559510735        0.10100772656118
16        18.8461057714963        18.3103024705805                 8.65685      0.0392396127923178      0.0143926465807775       0.116169479730606
17         12.426795838139        17.0943199436399                 8.65685     -0.0130005853587454    -0.00917968441226889      0.0163175229682176
18        12.4292290587396        14.6712798150634                 8.65685     -0.0165467122753155     0.00878248216773013      0.0236176631648174
19        19.5466211966922        14.6784271122721                 8.65685        0.01730092010557     0.00916859232377654      0.0247944797595371
20        19.5441879750283        17.1014672429596                 8.65685      0.0139338084179034    -0.00964155903179736      0.0178633760854019
21        20.9551350226241        14.7244350858224                 8.65685     -0.0290519140838514      0.0202837986381722      0.0644435552000978
22        20.9527913622507        17.0582882295758                 8.65685     -0.0230875737667623     -0.0208471027903834      0.0485289141332827
23        11.0206256731611        14.7144588294926                 8.65685      0.0295871398057508      0.0208306478457421      0.0676437697863614
24        11.0182820131454        17.0483119722736                 8.65685      0.0230682703118478     -0.0216112236113468      0.0501061386209798
25        21.5867264607395        15.8919970781177                 8.65685    -0.00159104757640121     0.00206364068207193    -0.00173922319839645
26        10.3866905744716        15.8807499786644                 8.65685      0.0015256308947062     0.00230938247684858     -0.0014951908559308
27         21.609196045824        18.0859221409264                 8.65685      -0.011353385212565     0.00249122661174434      0.0693977849976713
28        21.6136022867001        13.6981215696947                 8.65685     -0.0106517827596368    -0.00831504434079137      0.0651174415067844
29        10.3598147507275        18.0746254872963                 8.65685      0.0106224497242226     0.00219933724639595      0.0707829988231349
30        10.3642209902605        13.6868249167297                 8.65685      0.0101018086240056    -0.00868199417028483      0.0656223294995788
31        12.5998668222426        12.5154548000933                 8.65685   -0.000399124242904719    -0.00045852509606137    -0.00949159103392754
32        12.5931035005993        19.2504833212092                 8.65685   -0.000827314826923044    0.000672572641875626    -0.00878699737872115
33        19.3803135329519        12.5222637346313                 8.65685    0.000426026362025428   -0.000497316566004081     -0.0094240992877211
34        19.3735502071424         19.257292260389                 8.65685    0.000858631035421123    0.000737795894352827    -0.00867478918597225
35        14.9622865728669        12.4689605638796                 8.65685    0.000609756470483665    -0.00119552339001907    -0.00833234601989527
36         14.955425108682        19.3017221461408                 8.65685     0.00116897922034415     0.00175285789983459    -0.00680736099856907
37        17.0179919240215        12.4710249097393                 8.65685    -0.00060481619615706    -0.00116111433082013     -0.0083902111297609
38         17.011130457531        19.3037864905846                 8.65685    -0.00114413715333739     0.00165471516030494    -0.00700936854236449
39                       0                       0                5.656854                       0                       0                       0
40                       0                       0                2.828427                       0                       0                       0
41                       0                       0                       0                       0                       0                       0
42                       2                       2                5.656854    6.28924921144633e-10    8.78759115492532e-10    2.25576565938564e-10
43                       2                       2                2.828427                       0                       0                       0
44                       2                       2                       0                       0                       0                       0
45                       4                       0                5.656854                       0                       0                       0
46                       4                       0                2.828427                       0                       0                       0
47                       4                       0                       0                       0                       0                       0
48                       6                       2                5.656854    2.03710822334866e-08    4.09275112673414e-08    1.06472569582108e-08
49                       6                       2                2.828427     7.4350287243173e-10    1.51359146727771e-09    7.70386999752726e-10
50                       6                       2                       0                       0                       0                       0
51                       8                       0                5.656854    6.79891482021797e-10    3.33924965471431e-10    4.77626467438699e-10
52                       8                       0                2.828427    3.95936649807023e-10    1.58897214564824e-10    5.01997189166766e-10
53                       8                       0                       0                       0                       0                       0
54                      10                       2                5.656854    8.96866843516606e-08    3.44488534350537e-07    9.18221290360999e-08
55                      10                       2                2.828427    3.20250427377204e-09    1.23509106147266e-08    6.39181822215515e-09
56                      10                       2                       0    1.09038402930759e-09    4.65742967844343e-09    3.64920247274683e-09
57                      12                       0                5.656854    1.27955435504251e-09    2.03608210988614e-09    2.22727553005628e-09
58                      12                       0                2.828427    1.46857897677719e-09    3.39869869931352e-09    5.13105408456103e-09
59                      12                       0                       0                       0                       0                       0
60                      14                       2                5.656854    5.54515586120939e-08    8.51666759564677e-07    2.30384966390392e-07
61                      14                       2                2.828427     1.8774405795042e-09    2.91505018888576e-08     1.5296878918824e-08
62                      14                       2                       0    7.31322617013323e-10    1.27612442039263e-08    1.00635926254357e-08
63                      16                       0                5.656854   -8.41263373551858e-12    2.77716291631295e-09    3.43881096719156e-09
64                      16                       0                2.828427   -1.26670180688006e-11    4.74272641941034e-09    8.32439461028636e-09
65                      16                       0                       0                       0                       0                       0
66                      18                       2                5.656854   -5.68004003701689e-08    8.46836310501534e-07    2.29026406008566e-07
67                      18                       2                2.828427   -1.92445037087126e-09    2.89996713235657e-08    1.52143288568185e-08
68                      18                       2                       0   -7.52645967080089e-10    1.27031502685593e-08    1.00153568061693e-08
69                      20                       0                5.656854   -1.28616257289763e-09    1.96997437000999e-09    2.21349235192723e-09
70                      20                       0                2.828427   -1.47782261773485e-09    3.32556197037539e-09    5.09646496602861e-09
71                      20                       0                       0                       0                       0                       0
72                      22                       2                5.656854    -8.8845384787187e-08     3.3878734771748e-07    9.02554051385338e-08
73                      22                       2                2.828427   -3.17664220991396e-09    1.21630434174997e-08    6.29134125323927e-09
74                      22                       2                       0   -1.08404834995684e-09    4.59452385168467e-09    3.59778040353178e-09
75                      24                       0                5.656854   -6.73900704133504e-10     3.1349420793007e-10     4.7104677066988e-10
76                      24                       0                2.828427    -3.9261061950215e-10    1.51025027711759e-10    4.95028613602641e-10
77                      24                       0                       0                       0                       0                       0
78                      26                       2                5.656854   -1.99210632523352e-08    3.98816566032135e-08    1.03682949033205e-08
79                      26                       2                2.828427   -7.28334350961014e-10    1.47751123864393e-09    7.51505052615188e-10
80                      26                       2                       0                       0                       0                       0
81                      28                       0                5.656854                       0                       0                       0
82                      28                       0                2.828427                       0                       0                       0
83                      28                       0                       0                       0                       0                       0
84                      30                       2                5.656854   -6.09561118365424e-10    8.50272108546593e-10    2.18053207034496e-10
85                      30                       2                2.828427                       0                       0                       0
86                      30                       2                       0                       0                       0                       0
87                       0                       4                5.656854    6.20938110711099e-12    3.35572116805625e-10    1.03866758362075e-10
88                       0                       4                2.828427                       0                       0                       0
89                       0                       4                       0                       0                       0                       0
90                       2                       6                5.656854    1.10870267659462e-07    1.00779955411869e-07    3.78922795132537e-08
91                       2                       6                2.828427    4.09398953358691e-09    3.66934243200124e-09    2.68561468785331e-09
92                       2                       6                       0    1.17603135261929e-09    1.08078769256523e-09    1.21717575692668e-09
93                       4                       4                5.656854    1.26318404603544e-08    1.71094647695946e-08    5.26453423628194e-09
94                       4                       4                2.828427    1.51386781941221e-08    2.07374745552551e-08    1.23397938969239e-08
95                       4                       4                       0    1.63417452546364e-10    2.24716967588274e-10    2.06319718501697e-10
96                       6                       6                5.656854     3.7325899383262e-06      5.477000252418e-06    2.11421753500463e-06
97                       6                       6                2.828427    1.01728582272273e-07    1.47048107535968e-07    1.09484065628286e-07
98                       6                       6                       0    3.93651913779744e-08    5.62821925121077e-08    6.19061946703508e-08
99                       8                       4                5.656854    1.47732612978596e-07    3.44769179155026e-07    1.09040812107995e-07
100                       8                       4                2.828427    1.48865749919912e-07    3.43826170824905e-07    2.10046911689858e-07
101                       8                       4                       0    1.98758384762271e-09    4.64529589652543e-09     4.2088525804782e-09
102                      10                       6                5.656854     2.4747290234372e-05    7.32150804034442e-05    2.98134895983108e-05
103                      10                       6                2.828427    5.04837749577634e-07    1.46750276349881e-06    1.14201458159412e-06
104                      10                       6                       0    1.50318654532231e-07     4.2726059836627e-07       4.85669540634e-07
105                      12                       4                5.656854    2.99700381165666e-07    1.79170681010937e-06    5.85738122456952e-07
106                      12                       4                2.828427    2.66208874278499e-07    1.54284357527115e-06    9.70091929325004e-07
107                      12                       4                       0    3.29376694540926e-09    1.85610533034006e-08    1.71738843111272e-08
108                      14                       6                5.656854    1.37337098746773e-05    0.000208342335315836    8.78011141901373e-05
109                      14                       6                2.828427    2.77554613211748e-07    3.68854476145041e-06    2.96124701912459e-06
110                      14                       6                       0    8.20476967927968e-08    9.62661628049311e-07    1.12346870121517e-06
111                      16                       4                5.656854   -2.80562742000997e-09    2.68647664084108e-06     8.8732454985684e-07
112                      16                       4                2.828427   -2.37393809222566e-09    2.26262749838249e-06     1.4369714287664e-06
113                      16                       4                       0   -2.81982270540285e-11     2.6712588092805e-08    2.49190184853299e-08
114                      18                       6                5.656854   -1.41345679313132e-05    0.000207096266571688    8.72367823822798e-05
115                      18                       6                2.828427   -2.84727366447544e-07    3.66983925840198e-06    2.94503868099369e-06
116                      18                       6                       0   -8.39527102842598e-08    9.58575887297945e-07    1.11829602203399e-06
117                      20                       4                5.656854    -2.9994106284481e-07    1.77030395364122e-06    5.78426243238977e-07
118                      20                       4                2.828427   -2.66675695861652e-07    1.52651646575645e-06    9.59336358105703e-07
119                      20                       4                       0   -3.30322944374181e-09    1.83917858312911e-08     1.7009072985142e-08
120                      22                       6                5.656854   -2.44534302075721e-05    7.18270534383426e-05    2.92194077996835e-05
121                      22                       6                2.828427   -5.00184445456844e-07    1.44374557186483e-06    1.12251476995134e-06
122                      22                       6                       0   -1.49307157906322e-07      4.214685418408e-07    4.78689929084996e-07
123                      24                       4                5.656854   -1.45051311619614e-07    3.36864868429718e-07    1.06457177791635e-07
124                      24                       4                2.828427   -1.46486874243359e-07    3.36716162959663e-07    2.05548226531586e-07
125                      24                       4                       0   -1.96096610418685e-09     4.5612852286882e-09    4.12960344011171e-09
126                      26                       6                5.656854   -3.63541617922069e-06    5.31649092229141e-06    2.04995239013207e-06
127                      26                       6                2.828427   -9.94123787622245e-08    1.43230967942829e-07    1.06528996137082e-07
128                      26                       6                       0   -3.86076792092769e-08    5.50238282458034e-08    6.04606211138924e-08
129                      28                       4                5.656854   -1.22742544105778e-08    1.65837825295852e-08    5.09823850630512e-09
130                      28                       4                2.828427   -1.47433090159477e-08    2.01469902063675e-08    1.19776624857122e-08
131                      28                       4                       0   -1.59673461451296e-10      2.190636301414e-10    2.00923016998628e-10
132                      30                       6                5.656854   -1.06775530239268e-07    9.67786498430192e-08     3.6415686562028e-08
133                      30                       6                2.828427   -3.96939869065979e-09    3.55228980601983e-09    2.59694494054105e-09
134                      30                       6                       0   -1.14435873633516e-09    1.05044060308272e-09    1.18126307209738e-09
135                       0                       8                5.656854    4.30388604059257e-10    1.36210228339173e-08    6.58005828868396e-09
136                       0                       8                2.828427    4.48968266576344e-10    1.53596943845512e-08    1.46105442670903e-08
137                       0                       8                       0    4.15997823875528e-12    1.55546726889518e-10    2.36551962252326e-10
138                       2                      10                5.656854    3.48591535173547e-06    1.73269721060728e-06    1.20676888507566e-06
139                       2                      10                2.828427    9.79758144561193e-08    4.93138270362631e-08    6.54564198142975e-08
140                       2                      10                       0    3.92553048909448e-08    1.98663004534687e-08    3.85026442807558e-08
141                       4                       8                5.656854     1.1398421218978e-06    9.98830444180846e-07    4.97902146744207e-07
142                       4                       8                2.828427    9.39398292733921e-07    8.20051769065995e-07    7.84454270426854e-07
143                       4                       8                       0    1.08109085761075e-08     9.3896282607885e-09     1.3196239422219e-08
144                       6                      10                5.656854     0.00030906336543729    0.000258755091122173    0.000191388530090021
145                       6                      10                2.828427    4.32886617213199e-06     3.5997280437397e-06    5.00925034051017e-06
146                       6                      10                       0    9.40409789465322e-07    7.75669054209946e-07    1.54769641684044e-06
147                       8                       8                5.656854    2.63774985385404e-05    4.39756962306265e-05    2.30190450008054e-05
148                       8                       8                2.828427    1.34661224996579e-05    2.16627547250718e-05    2.16353718571334e-05
149                       8                       8                       0     1.0039801774964e-07     1.5622070701643e-07    2.26709227918871e-07
150                      10                      10                5.656854     0.00314631774992445     0.00621438193817439     0.00504243643270178
151                      10                      10                2.828427    2.62271255665141e-05    4.95742395166316e-05    7.43842642796111e-05
152                      10                      10                       0    3.73539083503019e-06    6.64628230018769e-06    1.40659863981071e-05
153                      12                       8                5.656854    7.06871524831616e-05    0.000325204107001475    0.000185899452958144
154                      12                       8                2.828427    2.61289185961415e-05    0.000114207767550283    0.000121910220509791
155                      12                       8                       0    1.54500661128176e-07    6.34034053959926e-07    9.67373564787029e-07
156                      14                      10                5.656854     0.00107806410490734      0.0159715526081277      0.0143196621122105
157                      14                      10                2.828427    1.01752341237569e-05    0.000117631114784891    0.000192139589465644
158                      14                      10                       0     1.6075088636126e-06    1.39029501673614e-05    3.12566112414959e-05
159                      16                       8                5.656854    -5.2179561212725e-07    0.000475404030651461     0.00027845545914893
160                      16                       8                2.828427   -1.88291801336397e-07    0.000161698572964926    0.000176630177179757
161                      16                       8                       0   -1.07829499074456e-09    8.75140941195424e-07      1.362360878588e-06
162                      18                      10                5.656854    -0.00112565693599162      0.0159236515552681      0.0142635731487566
163                      18                      10                2.828427   -1.05073160778168e-05    0.000117245481623529    0.000191334448432094
164                      18                      10                       0   -1.64627472952285e-06    1.38643502178244e-05    3.11466506268333e-05
165                      20                       8                5.656854   -7.07242274906382e-05     0.00032104175390323    0.000183302892340665
166                      20                       8                2.828427   -2.61918487109013e-05     0.00011305996160142    0.000120560741768985
167                      20                       8                       0   -1.55049611168053e-07    6.28924911637993e-07    9.58725523704176e-07
168                      22                      10                5.656854    -0.00311103880938176      0.0061054607825764     0.00494282623446389
169                      22                      10                2.828427   -2.60195743873692e-05    4.88542136718085e-05      7.316087035036e-05
170                      22                      10                       0   -3.71615676378872e-06    6.57010459316877e-06    1.38826403501775e-05
171                      24                       8                5.656854   -2.58077792148391e-05    4.28182327751571e-05    2.23781479319392e-05
172                      24                       8                2.828427   -1.32343217387292e-05    2.11932230428999e-05     2.1136861319151e-05
173                      24                       8                       0   -9.89956044077791e-08    1.53426294970838e-07    2.22370071494634e-07
174                      26                      10                5.656854    -0.00029979421325167    0.000250367138572797    0.000184757960621003
175                      26                      10                2.828427   -4.22517888043032e-06    3.50453030960159e-06    4.86715872084814e-06
176                      26                      10                       0   -9.22544582247036e-07    7.58961629386284e-07    1.51181905696068e-06
177                      28                       8                5.656854   -1.10296769031822e-06    9.64646694769623e-07    4.80121462241783e-07
178                      28                       8                2.828427   -9.12849258577675e-07    7.95305408071103e-07    7.59704529788261e-07
179                      28                       8                       0   -1.05517518581593e-08    9.14627763640747e-09    1.28373179667198e-08
180                      30                      10                5.656854   -3.36078565031874e-06    1.67002807376673e-06    1.16092741075851e-06
181                      30                      10                2.828427   -9.48369553331925e-08     4.7714204709797e-08    6.32252302128156e-08
182                      30                      10                       0    -3.8180177780672e-08    1.93015241567094e-08    3.73470473850407e-08
183                       0                      12                5.656854    4.47810693080277e-09    6.16658682005868e-08    6.69326648174934e-08
184                       0                      12                2.828427    4.48317937113489e-09    6.90082369642833e-08    1.42020544768373e-07
185                       0                      12                       0    5.61135001930904e-11    1.02810440419103e-09    3.01196271130378e-09
186                       2                      14                5.656854    1.94591545347913e-05    2.63718227396966e-06    6.73842105780454e-06
187                       2                      14                2.828427    4.70412009755013e-07     6.7729069283283e-08    3.15128734583577e-07
188                       2                      14                       0    1.63158146828543e-07    2.46630409699662e-08    1.59627768357005e-07
189                       4                      12                5.656854    2.48379675669101e-05    9.14316898083187e-06    1.10925665639498e-05
190                       4                      12                2.828427    1.36186084793931e-05    5.22571019353898e-06     1.1610126757416e-05
191                       4                      12                       0    1.07322144998061e-07    4.26325846205646e-08    1.33036092490789e-07
192                       6                      14                5.656854     0.00324008366524333    0.000629851137588821      0.0020415343180105
193                       6                      14                2.828427    3.02190554968377e-05    6.69077371669922e-06    3.57656648265399e-05
194                       6                      14                       0     4.6117840785054e-06     1.1104229827809e-06    7.76930731541414e-06
195                       8                      12                5.656854     0.00140847224921278     0.00106844240866713     0.00144499167770762
196                       8                      12                2.828427    0.000302381988292034    0.000227698355569247    0.000549596036988452
197                       8                      12                       0    1.18348321584409e-06     8.8022990302306e-07    2.91271407132731e-06
198                      10                      14                5.656854     -0.0220284287508874    -0.00616091611350512      -0.143537620342999
199                      10                      14                2.828427    0.000185842667571184    0.000106618076966609    0.000652549971303323
200                      10                      14                       0    1.74875981804029e-05    9.79942604220939e-06    7.52128018756847e-05
201                      12                      12                5.656854      0.0017915090121638     0.00552617728102531      0.0079493464168517