ITEM: TIMESTEP
0
ITEM: NUMBER OF ATOMS
422
ITEM: BOX BOUNDS ff ff ff
0.0000000000000000e+00 2.3200000000000000e+02
0.0000000000000000e+00 2.3200000000000000e+02
0.0000000000000000e+00 2.3200000000000000e+02
ITEM: ATOMS id xu yu zu fx fy fz
1        113.145932193839        115.383520815677              108.656854     -0.0108107123023642       0.018626675235426      0.0281330687018392
2        118.827484840071        115.389226241634              108.656854     0.00788160777663919      0.0190444704027812      0.0292353650829851
3        117.402344993917        115.387795112765              108.656854    -0.00643865532792324       0.025117413557161       0.038503541103063
4        114.571072038949        115.384951942936              108.656854      0.0121574745162664      0.0257136714344144      0.0399996771577958
5        116.701075167769        114.149724850164              108.656854     -0.0268758727890937     0.00825492968224479      0.0590328687087633
6        115.274826990867        114.148292608712              108.656854      0.0354104222992764     0.00837586700028209      0.0619829034725556
7        115.272341865028        116.623022205388              108.656854       0.011829787725159    -0.00563246183555966      0.0147347818411727
8        116.698590041422        116.624454446583              108.656854    -0.00392444428230857    -0.00517893185117253      0.0137051014031295
9        114.517756920757        112.948446241175              108.656854      0.0176368288014735     -0.0475790951366854      0.0806073712409957
10        117.460553482731        112.951401403886              108.656854     -0.0366438785528368     -0.0472272059767609      0.0805605435918426
11        114.512863550773        117.821345651893              108.656854      0.0337310694861594     -0.0253261275205527       0.179656222259261
12        117.455660110655        117.824300814179              108.656854      -0.053244805285751     -0.0245897575715051        0.17671173728388
13        113.127311260236        112.962444587898              108.656854     -0.0131313383212219      -0.038863201869776      0.0540130686062023
14        113.122448808114        117.804554762274              108.656854     -0.0329041097384348     -0.0185691600904529       0.123508192227796
15        118.850968226168        112.968192293572              108.656854     -0.0026795639425789     -0.0397007727502419      0.0581569377575113
16        118.846105771496         117.81030247058              108.656854      0.0172227617956308     -0.0181251794930386       0.130327954032453
17        112.426795838139         116.59431994364              108.656854    5.83578798947523e-05     0.00443970527248719     0.00833718668117577
18         112.42922905874        114.171279815063              108.656854      -0.015447455872048      0.0037736133737046      0.0344416683321213
19        119.546621196692        114.178427112272              108.656854      0.0263806566456855     0.00395738738596862      0.0347367369314165
20        119.544187975028         116.60146724296              108.656854       0.010144476417893     0.00380913828111995     0.00756888184288386
21        120.955135022624        114.224435085822              108.656854       0.119632115500325       0.137788429792511      0.0433963844286476
22        120.952791362251        116.558288229576              108.656854       0.145579007294139     -0.0244834527312469      0.0292129354679137
23        111.020625673161        114.214458829493              108.656854    -0.00101993817383071        0.13850269754171      0.0686065576332856
24        111.018282013145        116.548311972274              108.656854     -0.0281185236553854     -0.0213848762344892      0.0515262356447476
25        121.586726460739        115.391997078118              108.656854     -0.0596305928207207     0.00207522879913558      0.0243630395807736
26        110.386690574472        115.380749978664              108.656854    -0.00686442211559304     0.00134151569939671      0.0113565944773274
27        121.609196045824        117.585922140926              108.656854      -0.174258713713906      -0.105901841547619       0.168164293266209
28          121.6136022867        113.198121569695              108.656854      -0.176925879901232      -0.122446277153794       0.113452340737797
29        110.359814750727        117.574625487296              108.656854       0.025415504944397      -0.114621591354885       0.136978824990441
30         110.36422099026         113.18682491673              108.656854      0.0265979723103032       -0.12105190236829       0.080242434908728
31        112.599866822243        112.015454800093              108.656854     -0.0155976467058375      0.0144548249975796      0.0189890204242017
32        112.593103500599        118.750483321209              108.656854      -0.017101914093931      0.0146857573121896    -0.00450184068243373
33        119.380313532952        112.022263734631              108.656854      0.0578880623068889      0.0155112041340981      0.0129326194583721
34        119.373550207142        118.757292260389              108.656854      0.0581343367547094      0.0128786243002781     -0.0102509268299604
35        114.962286572867         111.96896056388              108.656854     0.00393686430015241      0.0078806850079427     0.00156255395075892
36        114.955425108682        118.801722146141              108.656854     0.00658093495324641      0.0121533929789542    -0.00800773090941907
37        117.017991924022        111.971024909739              108.656854      0.0227162706531214      0.0080649055647355    0.000779554850417106
38        117.011130457531        118.803786490585              108.656854      0.0193571916549834       0.011645128779396    -0.00890113230767054
39                     100                     100              105.656854       0.212206697282313       0.214177230796582      -0.975634279431821
40                     100                     100              102.828427       0.431995985974342       0.430275544362147   -0.000446343992928966
41                     100                     100                     100       0.212141595556196       0.213543331092605       0.976386599071625
42                     102                     102              105.656854      -0.344561640402715      -0.347966051962026       -0.27808535584374
43                     102                     102              102.828427     -0.0508817910449171      -0.048046003507233    0.000834332913532171
44                     102                     102                     100      -0.344463091297595      -0.346634325054637       0.276726460814909
45                     104                     100              105.656854      0.0956484275022899       0.960386568744615      -0.808874106125463
46                     104                     100              102.828427     -0.0636331654917089       0.726474073805913   -0.000363070928899523
47                     104                     100                     100      0.0960390427569193       0.959581749355087       0.809447207190855
48                     106                     102              105.656854      -0.148751010102261      -0.515491918038243      -0.381601279600472
49                     106                     102              102.828427       0.141902827404027      0.0668937176747185    0.000541456387776352
50                     106                     102                     100      -0.149883566237999      -0.513939056954413       0.380791807980321
51                     108                     100              105.656854       0.109069252927248        1.06022267443719      -0.801893464263051
52                     108                     100              102.828427      -0.111162120991151       0.639793724371356    0.000242033370913201
53                     108                     100                     100       0.110328612699668        1.06006918285576       0.801432130939491
54                     110                     102              105.656854      -0.142085478718675      -0.581796789896418      -0.373763831938739
55                     110                     102              102.828427       0.147182282380578       0.134731152011103    -0.00105700132215064
56                     110                     102                     100      -0.145067635202908      -0.582550054239608       0.375578478178401
57                     112                     100              105.656854       0.131114287298875        1.10792989036904      -0.810825766833062
58                     112                     100              102.828427      -0.135051023628257        0.58979034126458     0.00136047625473809
59                     112                     100                     100       0.132571639307776         1.1096560545899       0.808527260359911
60                     114                     102              105.656854      -0.163137949291954      -0.617419816529155      -0.360886701973972
61                     114                     102              102.828427         0.1683031743316       0.174021701410829    -0.00317716206621262
62                     114                     102                     100      -0.165024179028155      -0.622289114637049       0.366117896259386
63                     116                     100              105.656854       0.166589958667172        1.14301061062508       -0.82148628574654
64                     116                     100              102.828427      -0.170772834920116       0.552870081267191     0.00199097659880184
65                     116                     100                     100       0.166588050057101        1.14593460895713       0.818165204291258
66                     118                     102              105.656854      -0.210164358461697      -0.649623804450387      -0.347455367328789
67                     118                     102              102.828427       0.214789307845468       0.207270824282493    -0.00317358783094055
68                     118                     102                     100      -0.208271545813431       -0.65448316795529       0.352680771077767
69                     120                     100              105.656854       0.223764771990528        1.18201567068153      -0.835393161692629
70                     120                     100              102.828427       -0.22903719031896       0.513281151031687     0.00135904932604819
71                     120                     100                     100       0.222308751933599        1.18373745660099       0.833096967335653
72                     122                     102              105.656854      -0.289763299821035       -0.68797038624829      -0.330235234200557
73                     122                     102              102.828427       0.294249517487187       0.244298129380233    -0.00105548498505699
74                     122                     102                     100      -0.286791573051572      -0.688718621235984       0.332047306294731
75                     124                     100              105.656854       0.326806136101155        1.23686490666649       -0.85209183686064
76                     124                     100              102.828427      -0.323350597446386       0.459409605629379    0.000243539641296532
77                     124                     100                     100        0.32555162253813        1.23671340168591       0.851628163234222
78                     126                     102              105.656854      -0.462007098058285       -0.72828572136007      -0.332168530088173
79                     126                     102              102.828427       0.397508493520701       0.282067811267898    0.000535467882470142
80                     126                     102                     100       -0.46088065946075      -0.726743840484696       0.331368435887241
81                     128                     100              105.656854       0.708381158377333        1.34103049231631      -0.754674760390197
82                     128                     100              102.828427      -0.281036613973352       0.395856859095611   -0.000359095087049914
83                     128                     100                     100       0.707991829571102        1.34023175762636       0.755241455888931
84                     130                     102              105.656854       -1.34052482130579      -0.709135200409648      -0.755525347872234
85                     130                     102              102.828427      -0.395879680764205        0.28129471853653    0.000827269751868936
86                     130                     102                     100       -1.34062143123953      -0.707813647264472       0.754177778680208
87                     100                     104              105.656854       0.959349748375436       0.100354775798407      -0.808296299034393
88                     100                     104              102.828427         0.7275167207335     -0.0674464424329859    -0.00121941830558788
89                     100                     104                     100       0.958605954941611      0.0988514260684033       0.810306810207992
90                     102                     106              105.656854      -0.514378166543225      -0.157722770149766      -0.383137757260266
91                     102                     106              102.828427      0.0655093842439365       0.148546392350181     0.00256180070724408
92                     102                     106                     100      -0.512545406523157      -0.154291632372184       0.379030159273311
93                     104                     104              105.656854       0.247300200476064        0.25372769074643      -0.388209072594295
94                     104                     104              102.828427      -0.179940678427664      -0.184895802344499    -0.00165949552896994
95                     104                     104                     100       0.247230484299881       0.250688191544474       0.390834256179497
96                     106                     106              105.656854      -0.233246760209256      -0.246968321014001      -0.505642133516773
97                     106                     106              102.828427       0.225020306321851       0.234221040685984     0.00344877707662579
98                     106                     106                     100      -0.233835643875982      -0.239408938592922       0.500079543147987
99                     108                     104              105.656854       0.171943772036706       0.339652396155334      -0.374912836421151
100                     108                     104              102.828427       -0.17631436942177      -0.269219368914298   -0.000552211228544279
101                     108                     104                     100       0.175552118365899       0.336872899442566       0.375697022961466
102                     110                     106              105.656854      -0.177737190498337      -0.294336689091112      -0.490384131848385
103                     110                     106              102.828427       0.189972916481989       0.285937681444135     -0.0009580036177523
104                     110                     106                     100      -0.189845633190156      -0.291814714754781       0.491996674306227
105                     112                     104              105.656854       0.164562448106702       0.378096255301514      -0.391530012938991
106                     112                     104              102.828427      -0.172715589166085      -0.313813912792119      0.0036763197027105
107                     112                     104                     100       0.171012730005306       0.383119821232829       0.385418188707315
108                     114                     106              105.656854      -0.184878221688665      -0.302484726762476      -0.463748011516736
109                     114                     106              102.828427       0.195897364511105       0.310058143128629     -0.0106229482597258
110                     114                     106                     100      -0.194428520433009       -0.32175010192607       0.482582575624598
111                     116                     104              105.656854       0.198207277593004       0.402051485457264      -0.407791387447137
112                     116                     104              102.828427      -0.203407806737796      -0.342627403977682     0.00657413626718325
113                     116                     104                     100       0.198191762323747       0.413301736345361       0.396952207517434
114                     118                     106              105.656854      -0.244387622989057      -0.324763367348833      -0.447875566395869
115                     118                     106              102.828427       0.244947056127107       0.332982881162779     -0.0105964055891619
116                     118                     106                     100      -0.234783452218479      -0.343950833650176       0.466658437527724
117                     120                     104              105.656854       0.262848212379476       0.434786777729225      -0.422245106176838
118                     120                     104              102.828427       -0.26627726452104      -0.372331794432869     0.00366437391628783
119                     120                     104                     100       0.256406766139123       0.439777358186821       0.416153379587147
120                     122                     106              105.656854      -0.322452604330705      -0.364342459588976      -0.438616106228875
121                     122                     106              102.828427       0.321951334402297       0.358207957178188   -0.000946364014574682
122                     122                     106                     100      -0.310423854242657      -0.361792047496605       0.440209394207995
123                     124                     104              105.656854       0.369278650467498       0.464947177476005      -0.438240197234496
124                     124                     104              102.828427      -0.363345441961435      -0.398427017623803    -0.00054641291347648
125                     124                     104                     100       0.365694707949142       0.462181637473041       0.439014792729871
126                     126                     106              105.656854      -0.465981484435146      -0.371230382276624      -0.442537342649088
127                     126                     106              102.828427       0.401311251250889       0.362448709500594     0.00342189635482477
128                     126                     106                     100      -0.465403307560318      -0.363730783168321       0.437021580226427
129                     128                     104              105.656854       0.727870726794178       0.463210050057449      -0.330360029931617
130                     128                     104              102.828427      -0.282655483532302      -0.397575148141691    -0.00164558133697701
131                     128                     104                     100       0.727938978491623       0.460194581634486       0.332963247460026
132                     130                     106              105.656854       -1.23602211724216      -0.328968483308243      -0.853966889989488
133                     130                     106              102.828427      -0.459052505423843       0.324278680658992     0.00254087120210907
134                     130                     106                     100        -1.2378381982684      -0.325565804769321       0.849892396755073
135                     100                     108              105.656854        1.06366446761535       0.116872463301883      -0.799685786969145
136                     100                     108              102.828427       0.637839443366428      -0.117047669190125     -0.0027909551910097
137                     100                     108                     100        1.06079969373238        0.11429640499178       0.804208429401279
138                     102                     110              105.656854      -0.591330022333302      -0.155751758252568      -0.379791983549365
139                     102                     110              102.828427       0.139320959272753        0.15634715813224     0.00601042013977813
140                     102                     110                     100      -0.583971946071665      -0.150507531020486       0.370124825720778
141                     104                     108              105.656854       0.339757133695465        0.19084165667611      -0.369952258904345
142                     104                     108              102.828427      -0.267515595579175      -0.188268956397881    -0.00580512060193218
143                     104                     108                     100        0.33478902300836       0.182343538155998       0.379392236996701
144                     106                     110              105.656854      -0.302208927730483      -0.220904661008106      -0.510849549840998
145                     106                     110              102.828427       0.283697310317346       0.210691102473772      0.0134854333733041
146                     106                     110                     100      -0.288359497931752      -0.199416918576611       0.484558441643189
147                     108                     108              105.656854       0.221251876127093       0.256037414772352      -0.354915739602207
148                     108                     108              102.828427       -0.22778852492545       -0.24545685392354     -0.0066960408556448
149                     108                     108                     100       0.227344255465117       0.236048385693607       0.368654114372692
150                     110                     110              105.656854      -0.167839715683162       -0.26494452675767      -0.501568590153775
151                     110                     110              102.828427       0.212799937919004       0.243684817854351      0.0070690880060657
152                     110                     110                     100      -0.220603531143501      -0.232586310866751       0.474999031929356
153                     112                     108              105.656854       0.166307434268016        0.25526513260871      -0.396244802138942
154                     112                     108              102.828427      -0.194861421467039      -0.269002931860636     0.00955588290874134
155                     112                     108                     100       0.200089704764858       0.267210739536099       0.377382896692028
156                     114                     110              105.656854      -0.169894609613049      -0.178345892441962      -0.360849211873357
157                     114                     110              102.828427       0.206509559635566       0.246509417673154     -0.0308645658899824
158                     114                     110                     100      -0.212575904943549       -0.24937894540855       0.471290398913197
159                     116                     108              105.656854       0.220302126100311       0.242473434798393      -0.434672600766227
160                     116                     108              102.828427      -0.226128702202433      -0.280249689475551      0.0232633562488592
161                     116                     108                     100       0.220193392048215       0.285743398842113       0.387381658321994
162                     118                     110              105.656854      -0.293269938186643      -0.189600390035331      -0.343883416569002
163                     118                     110              102.828427       0.268952178366726       0.257876991496077     -0.0307347539769818
164                     118                     110                     100       -0.25013324341267      -0.260354404016662       0.453901328801142
165                     120                     108              105.656854       0.308673067835345       0.289110848727279      -0.430884261559886
166                     120                     108              102.828427      -0.293332731408805      -0.303718393157182       0.009472887161853
167                     120                     108                     100        0.27496615914356        0.30081144925967       0.412216669030243
168                     122                     110              105.656854      -0.368125547064103       -0.29867406120171      -0.445217638124695
169                     122                     110              102.828427       0.336743410043441       0.278302388544447     0.00713822412010955
170                     122                     110                     100      -0.316144087405772      -0.266089641550102       0.418549053965112
171                     124                     108              105.656854       0.375549286065203       0.325534054548241      -0.427359535031666
172                     124                     108              102.828427      -0.369136542549751      -0.317348207931117    -0.00666199284796552
173                     124                     108                     100       0.369568420024488       0.305682514973893       0.440982662277188
174                     126                     110              105.656854       -0.43330666011768      -0.276635115885576      -0.439281317866555
175                     126                     110              102.828427       0.379928867360011       0.268397980795656      0.0133851084399798
176                     126                     110                     100      -0.447063910045769       -0.25532981681026       0.413263496136427
177                     128                     108              105.656854       0.686789384296031       0.294899640845387      -0.325274135225296
178                     128                     108              102.828427      -0.246260214221578      -0.295773712138457    -0.00575710706040238
179                     128                     108                     100       0.691713865348236        0.28647710591824       0.334630694241593
180                     130                     110              105.656854        -1.1781828791795      -0.228085171843093      -0.839751409539956
181                     130                     110              102.828427      -0.513421420294962       0.231090863413965     0.00596131334998735
182                     130                     110                     100       -1.18547350045318      -0.222882816500054       0.830164950150762
183                     100                     112              105.656854         1.1191545508074       0.137773491208524      -0.806139880135177
184                     100                     112              102.828427       0.582957045620003      -0.139863250295704    -0.00473592220082265
185                     100                     112                     100        1.11295842458497       0.135645931264795       0.813759655443138
186                     102                     114              105.656854      -0.639966403321615      -0.169375220414276      -0.371873474016531
187                     102                     114              102.828427       0.185533525425737       0.172411129147845     0.00906659437367004
188                     102                     114                     100      -0.626783915647038      -0.167392873587181       0.357187659350601
189                     104                     112              105.656854        0.40415040492134       0.186395266759072      -0.373007523164853
190                     104                     112              102.828427      -0.323037710779479      -0.185129291289496     -0.0129996033813581
191                     104                     112                     100       0.385072769600128       0.177348143373988       0.395636496066973
192                     106                     114              105.656854      -0.356682735349781      -0.204678399951138      -0.518599853090811
193                     106                     114              102.828427       0.322234631698912       0.206531210979891      0.0243795716698249
194                     106                     114                     100       -0.32252825230895      -0.199266911024289       0.466095309110957
195                     108                     112              105.656854       0.291037094470364       0.250653617804572      -0.289854102012423
196                     108                     112              102.828427      -0.261531460565583      -0.222209155691674     -0.0244033871713945
197                     108                     112                     100        0.26086316894881       0.210813750168291       0.389963258032163
198                     110                     114              105.656854      -0.150538891840429      -0.170957815114396      -0.733638430574681
199                     110                     114              102.828427       0.221961831927772       0.225343921104349      0.0156132861723895
200                     110                     114                     100      -0.238958816023741      -0.220094247887664       0.456418403525283
201                     112                     112              105.656854      0.0784473219961578        0.22541705172629        -0.4291156856268