ITEM: TIMESTEP
0
ITEM: NUMBER OF ATOMS
422
ITEM: BOX BOUNDS ff ff ff
0.0000000000000000e+00 2.3200000000000000e+02
0.0000000000000000e+00 2.3200000000000000e+02
0.0000000000000000e+00 2.3200000000000000e+02
ITEM: ATOMS id xu yu zu fx fy fz
1        113.121222160261          115.9588107821        108.632143966423         3.5610440709721        3.66572909869168       0.755830192791618
2        118.809110676039        115.970852077603        108.638479835968        2.27548776553046        2.45064613144233       0.532918762433858
3          117.3714664874        115.956916606248        108.625975493483        2.57983549600347        2.69824815925059       0.533079252357168
4        114.590806829432        116.004686733419        108.676588790483       -1.13466582363518      -0.293936164415972      -0.129834057609879
5        116.688545503576        114.737195185971        108.644324335807        1.05265591325808         1.0865782507353       0.211775144763663
6        115.291575886513        114.765041504357        108.673602895645      -0.836725439124979      -0.957094375589349     -0.0975906752423813
7        115.314878413081        117.265558753441        108.699390548054       -1.65682811932734        -1.2189685090974      -0.116625845818462
8        116.730805494445        117.256669899606        108.689069453023        -3.1530591253438       -4.08265620416972      -0.637998533642128
9        114.532911693946        113.563601014363        108.672008773188      -0.470318149676124       -1.09177881097567      -0.252497081810296
10         117.48205374686        113.572901668015        108.678354264129        -1.6328084000184       -1.42615123652181      -0.303028786131354
11        114.543916420688        118.452398521808        108.687906869915      -0.926710442083714       -1.42898892421118      0.0276314221419598
12        117.430870563024        118.399511266548        108.632064452369        1.50088777401499        1.20810117513342       0.038555538738608
13        113.140838163607        113.575971491269        108.670380903372       0.381101055674923       0.531992250632719       0.132223636059153
14         113.15841475371         118.44052070787        108.692819945596       -1.37400328484037       -2.00843198640303       -0.22305242277731
15        118.847221534042        113.564445601446        108.653107307874        2.85379593457872        3.04321504395212       0.584338862553128
16        118.798269780578        118.362466479663        108.609018009082          4.141485291228        5.01779936955358       0.794597013621384
17        112.432203980899          117.1997280864         108.66226214276      -0.658819981260767      -0.371085975543426       -0.36763611929822
18        112.433304434647        114.775355190971        108.660929375907       -1.87105535521944       -2.13128282692226      -0.606480483948396
19        119.581464839526        114.813270755106        108.691697642834       -3.91743641981261       -4.09272427942864       -0.76274543392962
20        119.557480643715        117.214759911646        108.670146668687       -4.41568972931987       -4.20945964146697      -0.983399093972151
21        120.966094159537        114.835394222735        108.667813136913      -0.597456383588337        -1.3524118032363     -0.0328400458561448
22        120.924992845002        117.130489712327        108.629055482751        4.93898855085431        5.86373814376667        1.00605241834299
23        110.997512301428        114.791345457759        108.633740628267        4.45547051087686        5.02697950000135       0.908559652591248
24        111.001506244081        117.131536203209        108.640078230935        3.42839133279608         3.2832084360873       0.559959147287088
25        121.575748448503        115.981019065882        108.645875987764       0.677747099310876       0.378367088689031      -0.220606947493258
26         110.41352357821        116.007582982402        108.683687003738       -3.72808182949954       -4.50875405678358      -0.742394480026075
27        121.623138062116        118.199864157218        108.670796016292         -2.500347386065        -3.3451732669176       -0.41592298536902
28        121.596766866002        113.781286148996        108.640018579301       0.311596352419334       0.981816337150807       0.115540477136702
29        110.342171477523        118.156982214092        108.639210726796      -0.118007557562109      -0.158710419839114     -0.0219803913864317
30        110.368970270065        113.791574196534        108.661603279804         -1.941424606662       -1.89661846861333     -0.0549579385033218
31        112.625598533659         112.64118651151        108.682585711417       -0.33194864276877      -0.454365384089055     -0.0533411168709388
32         112.60876953718         119.36614935779        108.672520036581      0.0247882917587085       0.305816051244348      0.0502672779085592
33        119.421088789528        112.663038991207        108.697629256576      -0.357780602395311      -0.795616040274419      -0.111678306634849
34        119.396307880007        119.380049933254        108.679611672865       -1.84996531735969       -2.40952782128778      -0.462822099719222
35         114.91752446247        112.524198453483        108.612091889604       0.542164479810457        1.15453555676622        0.18131650039118
36        114.937073897832        119.383370935291         108.63850278915       0.941942946934726        1.76529419064744      0.0536639570835515
37        117.052700972502         112.60573395822        108.691563048481      -0.461063274388279      -0.488082416973856      0.0699732646092977
38        116.976591871119        119.369247904172        108.622315413588       0.266813003929535       0.259753829015557      0.0411503252283068
39                     100                     100              105.656854                       0                       0                       0
40                     100                     100              102.828427                       0                       0                       0
41                     100                     100                     100                       0                       0                       0
42                     102                     102              105.656854                       0                       0                       0
43                     102                     102              102.828427                       0                       0                       0
44                     102                     102                     100                       0                       0                       0
45                     104                     100              105.656854                       0                       0                       0
46                     104                     100              102.828427                       0                       0                       0
47                     104                     100                     100                       0                       0                       0
48                     106                     102              105.656854                       0                       0                       0
49                     106                     102              102.828427                       0                       0                       0
50                     106                     102                     100                       0                       0                       0
51                     108                     100              105.656854                       0                       0                       0
52                     108                     100              102.828427                       0                       0                       0
53                     108                     100                     100                       0                       0                       0
54                     110                     102              105.656854                       0                       0                       0
55                     110                     102              102.828427                       0                       0                       0
56                     110                     102                     100                       0                       0                       0
57                     112                     100              105.656854                       0                       0                       0
58                     112                     100              102.828427                       0                       0                       0
59                     112                     100                     100                       0                       0                       0
60                     114                     102              105.656854                       0                       0                       0
61                     114                     102              102.828427                       0                       0                       0
62                     114                     102                     100                       0                       0                       0
63                     116                     100              105.656854                       0                       0                       0
64                     116                     100              102.828427                       0                       0                       0
65                     116                     100                     100                       0                       0                       0
66                     118                     102              105.656854                       0                       0                       0
67                     118                     102              102.828427                       0                       0                       0
68                     118                     102                     100                       0                       0                       0
69                     120                     100              105.656854                       0                       0                       0
70                     120                     100              102.828427                       0                       0                       0
71                     120                     100                     100                       0                       0                       0
72                     122                     102              105.656854                       0                       0                       0
73                     122                     102              102.828427                       0                       0                       0
74                     122                     102                     100                       0                       0                       0
75                     124                     100              105.656854                       0                       0                       0
76                     124                     100              102.828427                       0                       0                       0
77                     124                     100                     100                       0                       0                       0
78                     126                     102              105.656854                       0                       0                       0
79                     126                     102              102.828427                       0                       0                       0
80                     126                     102                     100                       0                       0                       0
81                     128                     100              105.656854                       0                       0                       0
82                     128                     100              102.828427                       0                       0                       0
83                     128                     100                     100                       0                       0                       0
84                     130                     102              105.656854                       0                       0                       0
85                     130                     102              102.828427                       0                       0                       0
86                     130                     102                     100                       0                       0                       0
87                     100                     104              105.656854                       0                       0                       0
88                     100                     104              102.828427                       0                       0                       0
89                     100                     104                     100                       0                       0                       0
90                     102                     106              105.656854                       0                       0                       0
91                     102                     106              102.828427                       0                       0                       0
92                     102                     106                     100                       0                       0                       0
93                     104                     104              105.656854                       0                       0                       0
94                     104                     104              102.828427                       0                       0                       0
95                     104                     104                     100                       0                       0                       0
96                     106                     106              105.656854                       0                       0                       0
97                     106                     106              102.828427                       0                       0                       0
98                     106                     106                     100                       0                       0                       0
99                     108                     104              105.656854                       0                       0                       0
100                     108                     104              102.828427                       0                       0                       0
101                     108                     104                     100                       0                       0                       0
102                     110                     106              105.656854                       0                       0                       0
103                     110                     106              102.828427                       0                       0                       0
104                     110                     106                     100                       0                       0                       0
105                     112                     104              105.656854                       0                       0                       0
106                     112                     104              102.828427                       0                       0                       0
107                     112                     104                     100                       0                       0                       0
108                     114                     106              105.656854                       0                       0                       0
109                     114                     106              102.828427                       0                       0                       0
110                     114                     106                     100                       0                       0                       0
111                     116                     104              105.656854                       0                       0                       0
112                     116                     104              102.828427                       0                       0                       0
113                     116                     104                     100                       0                       0                       0
114                     118                     106              105.656854                       0                       0                       0
115                     118                     106              102.828427                       0                       0                       0
116                     118                     106                     100                       0                       0                       0
117                     120                     104              105.656854                       0                       0                       0
118                     120                     104              102.828427                       0                       0                       0
119                     120                     104                     100                       0                       0                       0
120                     122                     106              105.656854                       0                       0                       0
121                     122                     106              102.828427                       0                       0                       0
122                     122                     106                     100                       0                       0                       0
123                     124                     104              105.656854                       0                       0                       0
124                     124                     104              102.828427                       0                       0                       0
125                     124                     104                     100                       0                       0                       0
126                     126                     106              105.656854                       0                       0                       0
127                     126                     106              102.828427                       0                       0                       0
128                     126                     106                     100                       0                       0                       0
129                     128                     104              105.656854                       0                       0                       0
130                     128                     104              102.828427                       0                       0                       0
131                     128                     104                     100                       0                       0                       0
132                     130                     106              105.656854                       0                       0                       0
133                     130                     106              102.828427                       0                       0                       0
134                     130                     106                     100                       0                       0                       0
135                     100                     108              105.656854                       0                       0                       0
136                     100                     108              102.828427                       0                       0                       0
137                     100                     108                     100                       0                       0                       0
138                     102                     110              105.656854                       0                       0                       0
139                     102                     110              102.828427                       0                       0                       0
140                     102                     110                     100                       0                       0                       0
141                     104                     108              105.656854                       0                       0                       0
142                     104                     108              102.828427                       0                       0                       0
143                     104                     108                     100                       0                       0                       0
144                     106                     110              105.656854                       0                       0                       0
145                     106                     110              102.828427                       0                       0                       0
146                     106                     110                     100                       0                       0                       0
147                     108                     108              105.656854                       0                       0                       0
148                     108                     108              102.828427                       0                       0                       0
149                     108                     108                     100                       0                       0                       0
150                     110                     110              105.656854                       0                       0                       0
151                     110                     110              102.828427                       0                       0                       0
152                     110                     110                     100                       0                       0                       0
153                     112                     108              105.656854                       0                       0                       0
154                     112                     108              102.828427                       0                       0                       0
155                     112                     108                     100                       0                       0                       0
156                     114                     110              105.656854                       0                       0                       0
157                     114                     110              102.828427                       0                       0                       0
158                     114                     110                     100                       0                       0                       0
159                     116                     108              105.656854                       0                       0                       0
160                     116                     108              102.828427                       0                       0                       0
161                     116                     108                     100                       0                       0                       0
162                     118                     110              105.656854                       0                       0                       0
163                     118                     110              102.828427                       0                       0                       0
164                     118                     110                     100                       0                       0                       0
165                     120                     108              105.656854                       0                       0                       0
166                     120                     108              102.828427                       0                       0                       0
167                     120                     108                     100                       0                       0                       0
168                     122                     110              105.656854                       0                       0                       0
169                     122                     110              102.828427                       0                       0                       0
170                     122                     110                     100                       0                       0                       0
171                     124                     108              105.656854                       0                       0                       0
172                     124                     108              102.828427                       0                       0                       0
173                     124                     108                     100                       0                       0                       0
174                     126                     110              105.656854                       0                       0                       0
175                     126                     110              102.828427                       0                       0                       0
176                     126                     110                     100                       0                       0                       0
177                     128                     108              105.656854                       0                       0                       0
178                     128                     108              102.828427                       0                       0                       0
179                     128                     108                     100                       0                       0                       0
180                     130                     110              105.656854                       0                       0                       0
181                     130                     110              102.828427                       0                       0                       0
182                     130                     110                     100                       0                       0                       0
183                     100                     112              105.656854                       0                       0                       0
184                     100                     112              102.828427                       0                       0                       0
185                     100                     112                     100                       0                       0                       0
186                     102                     114              105.656854                       0                       0                       0
187                     102                     114              102.828427                       0                       0                       0
188                     102                     114                     100                       0                       0                       0
189                     104                     112              105.656854                       0                       0                       0
190                     104                     112              102.828427                       0                       0                       0
191                     104                     112                     100                       0                       0                       0
192                     106                     114              105.656854                       0                       0                       0
193                     106                     114              102.828427                       0                       0                       0
194                     106                     114                     100                       0                       0                       0
195                     108                     112              105.656854                       0                       0                       0
196                     108                     112              102.828427                       0                       0                       0
197                     108                     112                     100                       0                       0                       0
198                     110                     114              105.656854                       0                       0                       0
199                     110                     114              102.828427                       0                       0                       0
200                     110                     114                     100                       0                       0                       0
201                     112                     112              105.656854                       0                       0                       0