ITEM: TIMESTEP
0
ITEM: NUMBER OF ATOMS
422
ITEM: BOX BOUNDS ff ff ff
0.0000000000000000e+00 2.3200000000000000e+02
0.0000000000000000e+00 2.3200000000000000e+02
0.0000000000000000e+00 2.3200000000000000e+02
ITEM: ATOMS id xu yu zu fx fy fz
1        113.132476950921        115.970065572759        108.643398757082        4.05897963026464        3.73479320547004      -0.231144470193437
2        118.849037302238        116.010778703801        108.678406462167       -2.68131099089864       -0.74358129589156       0.246957976778009
3          117.4504958817        116.035946000548        108.705004887783       -6.19590677314486       -7.35458243492359       0.231116678211641
4        114.563114948838        115.976994852825        108.648896909889        0.29047314945964       0.838014190007239      -0.159873043825692
5        116.682066035749        114.730715718143         108.63784486798        4.20183840503809        3.38268812422651    -0.00822739775794046
6        115.277440363496         114.75090598134        108.659467372628        4.09748523694309      -0.535944248495077      -0.106969912565946
7        115.248344646801        117.199024987161        108.632856781774         3.6174441158862        3.90997413680813      -0.274526485686189
8        116.681575674859         117.20744008002        108.639839633438       0.130122152721586        5.13289302397034      -0.128707466413534
9        114.565039253658        113.595728574076          108.7041363329      -0.720570667182326        -13.902346495494       0.436405618979126
10        117.492026991544        113.582874912698        108.688327508812       -6.79633769258305       -7.54723084569622     -0.0055361052154319
11        114.477918249381        118.386400350501        108.621908698608        8.95639889136185        10.8256867772886      -0.177634525059154
12        117.447036331492        118.415677035016        108.648230220837       -2.76672351148565        9.82355602735882      -0.107220189627547
13        113.153695800485        113.588829128147        108.683238540249       -6.18516094068671       -11.9199213641892       0.175728374068701
14        113.117491397211        118.399597351372        108.651896589098       -5.00385943157652        8.21340502728996      0.0550735565581068
15        118.833850074017        113.551074141421        108.639735847849        8.72288556781712       -3.02377773914741      -0.102291575380366
16        118.890568340419        118.454765039503        108.701316568923       0.715143618619735        5.45939384689793    -0.00409418859736212
17        112.430499885654        117.198023991155        108.660558047515       -5.10265509684057       -0.39557257802066      0.0684784094381515
18        112.446079428143        114.788130184467        108.673704369404       -4.78485511518361       -5.25491211096106       0.213268967716884
19        119.586144419012        114.817950334592         108.69637722232       -3.06642543224825       -5.46490543356734       0.231610677414455
20        119.543822396097        117.201101664028        108.656488421069        5.53996594580882        5.84758557626519      -0.147914941785198
21         120.93079928023        114.800099343428        108.632518257606         13.900726516001       -2.96976039582039      -0.173423744805024
22        120.995778077095         117.20127494442        108.699840714845        4.02944267968754        1.81291661857139       0.309849589893918
23        111.041925372682        114.835758529013        108.678153699521       -12.4968868567884        -17.316730123547      0.0944041514108583
24        110.999802933725        117.129832892853        108.638374920579       -7.82337608600011         13.368383793282      -0.168930072319017
25        121.618522340517        116.023792957896        108.688649879778        2.62185498880749        -5.4203227533505     -0.0147189945595928
26        110.375451872458        115.969511276651        108.645615297986       -4.90826155863762       0.465054003807257       -0.06853198811275
27        121.602797569498        118.179523664601        108.650455523674        7.61981334719692        10.6741031327801      -0.301289921588294
28        121.582208781514        113.766728064508        108.625460494814        5.61563524965169       -4.93789545801673      -0.264014153353676
29        110.383741361476        118.198552098045        108.680780610748       -4.65546476938969        4.17320439240142      0.0600027715693409
30        110.335319383072        113.757923309541        108.627952392812      -0.733593376622366      -0.523430089702082      0.0988927848881675
31        112.561635755128        112.577223732979        108.618622932885      0.0234032981155861      -0.766396010604776         0.0282869875711
32        112.574095003367        119.331474823977        108.637845502768       -3.15364696029801        5.59952669706997     -0.0136471417269704
33        119.416621874021        112.658572075701         108.69316234107        3.10060445511892       -5.26418569127951      0.0369752526585078
34        119.409131172933         119.39287322618        108.692434965791        2.20101866685569        4.09704182775188      0.0916134518096813
35        114.943483584133        112.550157575145        108.638051011266        3.63833923162743       -4.03945347744643     -0.0911557490318118
36        114.970137633751         119.41643467121        108.671566525069        2.02174063491645        2.40646982336804     -0.0116813808728212
37        117.034544443519        112.587577429237        108.673406519498       -4.67280534536496       -5.77180158342382       0.170060292489784
38        117.052460083003        119.445116116057        108.698183625472       -3.35547517696809        3.38805990496259      0.0128079070213247
39                     100                     100              105.656854                       0                       0                       0
40                     100                     100              102.828427                       0                       0                       0
41                     100                     100                     100                       0                       0                       0
42                     102                     102              105.656854                       0                       0                       0
43                     102                     102              102.828427                       0                       0                       0
44                     102                     102                     100                       0                       0                       0
45                     104                     100              105.656854                       0                       0                       0
46                     104                     100              102.828427                       0                       0                       0
47                     104                     100                     100                       0                       0                       0
48                     106                     102              105.656854                       0                       0                       0
49                     106                     102              102.828427                       0                       0                       0
50                     106                     102                     100                       0                       0                       0
51                     108                     100              105.656854                       0                       0                       0
52                     108                     100              102.828427                       0                       0                       0
53                     108                     100                     100                       0                       0                       0
54                     110                     102              105.656854                       0                       0                       0
55                     110                     102              102.828427                       0                       0                       0
56                     110                     102                     100                       0                       0                       0
57                     112                     100              105.656854                       0                       0                       0
58                     112                     100              102.828427                       0                       0                       0
59                     112                     100                     100                       0                       0                       0
60                     114                     102              105.656854                       0                       0                       0
61                     114                     102              102.828427                       0                       0                       0
62                     114                     102                     100                       0                       0                       0
63                     116                     100              105.656854                       0                       0                       0
64                     116                     100              102.828427                       0                       0                       0
65                     116                     100                     100                       0                       0                       0
66                     118                     102              105.656854                       0                       0                       0
67                     118                     102              102.828427                       0                       0                       0
68                     118                     102                     100                       0                       0                       0
69                     120                     100              105.656854                       0                       0                       0
70                     120                     100              102.828427                       0                       0                       0
71                     120                     100                     100                       0                       0                       0
72                     122                     102              105.656854                       0                       0                       0
73                     122                     102              102.828427                       0                       0                       0
74                     122                     102                     100                       0                       0                       0
75                     124                     100              105.656854                       0                       0                       0
76                     124                     100              102.828427                       0                       0                       0
77                     124                     100                     100                       0                       0                       0
78                     126                     102              105.656854                       0                       0                       0
79                     126                     102              102.828427                       0                       0                       0
80                     126                     102                     100                       0                       0                       0
81                     128                     100              105.656854                       0                       0                       0
82                     128                     100              102.828427                       0                       0                       0
83                     128                     100                     100                       0                       0                       0
84                     130                     102              105.656854                       0                       0                       0
85                     130                     102              102.828427                       0                       0                       0
86                     130                     102                     100                       0                       0                       0
87                     100                     104              105.656854                       0                       0                       0
88                     100                     104              102.828427                       0                       0                       0
89                     100                     104                     100                       0                       0                       0
90                     102                     106              105.656854                       0                       0                       0
91                     102                     106              102.828427                       0                       0                       0
92                     102                     106                     100                       0                       0                       0
93                     104                     104              105.656854                       0                       0                       0
94                     104                     104              102.828427                       0                       0                       0
95                     104                     104                     100                       0                       0                       0
96                     106                     106              105.656854                       0                       0                       0
97                     106                     106              102.828427                       0                       0                       0
98                     106                     106                     100                       0                       0                       0
99                     108                     104              105.656854                       0                       0                       0
100                     108                     104              102.828427                       0                       0                       0
101                     108                     104                     100                       0                       0                       0
102                     110                     106              105.656854                       0                       0                       0
103                     110                     106              102.828427                       0                       0                       0
104                     110                     106                     100                       0                       0                       0
105                     112                     104              105.656854                       0                       0                       0
106                     112                     104              102.828427                       0                       0                       0
107                     112                     104                     100                       0                       0                       0
108                     114                     106              105.656854                       0                       0                       0
109                     114                     106              102.828427                       0                       0                       0
110                     114                     106                     100                       0                       0                       0
111                     116                     104              105.656854                       0                       0                       0
112                     116                     104              102.828427                       0                       0                       0
113                     116                     104                     100                       0                       0                       0
114                     118                     106              105.656854                       0                       0                       0
115                     118                     106              102.828427                       0                       0                       0
116                     118                     106                     100                       0                       0                       0
117                     120                     104              105.656854                       0                       0                       0
118                     120                     104              102.828427                       0                       0                       0
119                     120                     104                     100                       0                       0                       0
120                     122                     106              105.656854                       0                       0                       0
121                     122                     106              102.828427                       0                       0                       0
122                     122                     106                     100                       0                       0                       0
123                     124                     104              105.656854                       0                       0                       0
124                     124                     104              102.828427                       0                       0                       0
125                     124                     104                     100                       0                       0                       0
126                     126                     106              105.656854                       0                       0                       0
127                     126                     106              102.828427                       0                       0                       0
128                     126                     106                     100                       0                       0                       0
129                     128                     104              105.656854                       0                       0                       0
130                     128                     104              102.828427                       0                       0                       0
131                     128                     104                     100                       0                       0                       0
132                     130                     106              105.656854                       0                       0                       0
133                     130                     106              102.828427                       0                       0                       0
134                     130                     106                     100                       0                       0                       0
135                     100                     108              105.656854                       0                       0                       0
136                     100                     108              102.828427                       0                       0                       0
137                     100                     108                     100                       0                       0                       0
138                     102                     110              105.656854                       0                       0                       0
139                     102                     110              102.828427                       0                       0                       0
140                     102                     110                     100                       0                       0                       0
141                     104                     108              105.656854                       0                       0                       0
142                     104                     108              102.828427                       0                       0                       0
143                     104                     108                     100                       0                       0                       0
144                     106                     110              105.656854                       0                       0                       0
145                     106                     110              102.828427                       0                       0                       0
146                     106                     110                     100                       0                       0                       0
147                     108                     108              105.656854                       0                       0                       0
148                     108                     108              102.828427                       0                       0                       0
149                     108                     108                     100                       0                       0                       0
150                     110                     110              105.656854                       0                       0                       0
151                     110                     110              102.828427                       0                       0                       0
152                     110                     110                     100                       0                       0                       0
153                     112                     108              105.656854                       0                       0                       0
154                     112                     108              102.828427                       0                       0                       0
155                     112                     108                     100                       0                       0                       0
156                     114                     110              105.656854                       0                       0                       0
157                     114                     110              102.828427                       0                       0                       0
158                     114                     110                     100                       0                       0                       0
159                     116                     108              105.656854                       0                       0                       0
160                     116                     108              102.828427                       0                       0                       0
161                     116                     108                     100                       0                       0                       0
162                     118                     110              105.656854                       0                       0                       0
163                     118                     110              102.828427                       0                       0                       0
164                     118                     110                     100                       0                       0                       0
165                     120                     108              105.656854                       0                       0                       0
166                     120                     108              102.828427                       0                       0                       0
167                     120                     108                     100                       0                       0                       0
168                     122                     110              105.656854                       0                       0                       0
169                     122                     110              102.828427                       0                       0                       0
170                     122                     110                     100                       0                       0                       0
171                     124                     108              105.656854                       0                       0                       0
172                     124                     108              102.828427                       0                       0                       0
173                     124                     108                     100                       0                       0                       0
174                     126                     110              105.656854                       0                       0                       0
175                     126                     110              102.828427                       0                       0                       0
176                     126                     110                     100                       0                       0                       0
177                     128                     108              105.656854                       0                       0                       0
178                     128                     108              102.828427                       0                       0                       0
179                     128                     108                     100                       0                       0                       0
180                     130                     110              105.656854                       0                       0                       0
181                     130                     110              102.828427                       0                       0                       0
182                     130                     110                     100                       0                       0                       0
183                     100                     112              105.656854                       0                       0                       0
184                     100                     112              102.828427                       0                       0                       0
185                     100                     112                     100                       0                       0                       0
186                     102                     114              105.656854                       0                       0                       0
187                     102                     114              102.828427                       0                       0                       0
188                     102                     114                     100                       0                       0                       0
189                     104                     112              105.656854                       0                       0                       0
190                     104                     112              102.828427                       0                       0                       0
191                     104                     112                     100                       0                       0                       0
192                     106                     114              105.656854                       0                       0                       0
193                     106                     114              102.828427                       0                       0                       0
194                     106                     114                     100                       0                       0                       0
195                     108                     112              105.656854                       0                       0                       0
196                     108                     112              102.828427                       0                       0                       0
197                     108                     112                     100                       0                       0                       0
198                     110                     114              105.656854                       0                       0                       0
199                     110                     114              102.828427                       0                       0                       0
200                     110                     114                     100                       0                       0                       0
201                     112                     112              105.656854                       0                       0                       0