ITEM: TIMESTEP
0
ITEM: NUMBER OF ATOMS
422
ITEM: BOX BOUNDS ff ff ff
0.0000000000000000e+00 2.3200000000000000e+02
0.0000000000000000e+00 2.3200000000000000e+02
0.0000000000000000e+00 2.3200000000000000e+02
ITEM: ATOMS id xu yu zu fx fy fz
1        113.125092364813        115.962680986652        108.636014170975      -0.264494273101345       0.485743905475888     -0.0434826043166382
2        118.800422544361        115.962163945925         108.62979170429        4.06818519006974        4.10649538598084        0.85227934631558
3        117.441344188142         116.02679430699        108.695853194225       -6.27279382251796        -6.5321456892621       -1.30354554613434
4        114.538084854864         115.95196475885        108.623866815915        2.80025793686688        2.59714289768668       0.576668127247658
5        116.673906182034        114.722555864428        108.629685014265        2.28163053219424        2.96030490771071       0.594388151908289
6        115.249733389794        114.723199007638        108.631760398926        2.16988752061912        2.42230598147364       0.169250684792799
7        115.285869104151        117.236549444511        108.670381239123        -3.4258371529325       -4.17006815461732      -0.884785231629806
8        116.693547267376        117.219411672537        108.651811225955        1.53408991913993        1.85908489477916       0.456085062294155
9        114.557626800186        113.588316120604        108.696723879429       -3.05389071360882        -4.5174399088579      -0.634105728177144
10        117.433596249793        113.524444170948        108.629896767061        3.17546959514686        3.00636499962771       0.294512942148218
11        114.478533213125        118.387015314245        108.622523662352        2.89123707811953        3.55098496315282       0.608761518067489
12        117.441602825983        118.410243529506        108.642796715327        1.26538882182273        2.36983600314698       0.402805320267499
13        113.160675199256        113.595808526918        108.690217939021       -2.97195021953949       -4.36449813067108      -0.599724467984473
14        113.097412358529         118.37951831269        108.631817550415        1.12269628246563        1.92886077677645       0.354238329642629
15        118.865298743685        113.582522811089        108.671184517517      -0.360155195011984       0.327342003663971      0.0237202831964566
16        118.851068524833        118.415265223917        108.661816753336      -0.347851475987896       -0.15409026770305      -0.183244759645579
17        112.427386202943        117.194910308444        108.657444364804       -3.23639684582148        -3.5928626635939      -0.904327519241299
18        112.404959768596         114.74701052492        108.632584709856        1.77210266587679         2.3091775658704       0.431388961881579
19         119.59125059313         114.82305650871        108.701483396438       -4.32987793302861       -4.68570885628866      -0.761642973010486
20        119.515787021671        117.173066289603        108.628453046643      -0.125222980878922       0.180646475233734      -0.301604099231315
21        120.981932367192         114.85123243039        108.683651344568       0.702017098700192      -0.250123619736097       0.184019060899079
22        120.905974458618        117.111471325943        108.610037096367        5.50347504202088         6.2124238632268        1.06058023166152
23        111.011603543703        114.805436700034        108.647831870542      -0.143808164013314      -0.162195972470061      -0.160323246356094
24        110.976368711805        117.106398670933         108.61494069866        5.36600405594877        6.78652627342449        1.36555470188622
25        121.601309976721        116.006580594099        108.671437515982       -1.41022476086258       -1.28998751456194       -0.54237749867512
26        110.377465795676        115.971525199869        108.647629221204       -2.36938724187693       -1.55729896249806      -0.209832713492087
27        121.600859070978        118.177585166081        108.648517025154       -2.89725504137752       -2.64085761616145      -0.422715574617594
28        121.635522271871        113.820041554865         108.67877398517     -0.0944579206763858       0.119889262287767      0.0889271930973364
29        110.401013456322        118.215824192891        108.698052705595       -1.49359497948971       -3.36703289532374      -0.527945466227931
30        110.361797059265        113.784400985734        108.654430069004      -0.376669975655991      -0.446958976196752      0.0630712400966023
31         112.55745500264        112.573042980491        108.614442180398        2.03230756962048        2.55476611791483       0.428692344074391
32        112.631469984444        119.388849805054        108.695220483845      -0.335488205197893       -1.13835127392547      -0.228969326688385
33        119.389507485881         112.63145768756        108.666047952929       0.187957229442738       0.138558244735213       0.091136904659819
34        119.413978973173        119.397721026419         108.69728276603      -0.727060943830418        -1.2948434014153     -0.0860630974297536
35        114.913241181132        112.519915172144        108.607808608265       0.619669685117629         1.7709957243659        0.33978289518601
36        114.979103130925        119.425400168384        108.680532022243       -1.36856586630727       -2.00481282271311       -0.27530416561012
37        117.055067697403        112.608100683121        108.693929773382       -1.46667764978103       -2.29120422097756      -0.111312553343157
38        117.058781877597         119.45143791065        108.704505420066      -0.420714861674075       -1.22696929956043      -0.204556727512006
39                     100                     100              105.656854                       0                       0                       0
40                     100                     100              102.828427                       0                       0                       0
41                     100                     100                     100                       0                       0                       0
42                     102                     102              105.656854                       0                       0                       0
43                     102                     102              102.828427                       0                       0                       0
44                     102                     102                     100                       0                       0                       0
45                     104                     100              105.656854                       0                       0                       0
46                     104                     100              102.828427                       0                       0                       0
47                     104                     100                     100                       0                       0                       0
48                     106                     102              105.656854                       0                       0                       0
49                     106                     102              102.828427                       0                       0                       0
50                     106                     102                     100                       0                       0                       0
51                     108                     100              105.656854                       0                       0                       0
52                     108                     100              102.828427                       0                       0                       0
53                     108                     100                     100                       0                       0                       0
54                     110                     102              105.656854                       0                       0                       0
55                     110                     102              102.828427                       0                       0                       0
56                     110                     102                     100                       0                       0                       0
57                     112                     100              105.656854                       0                       0                       0
58                     112                     100              102.828427                       0                       0                       0
59                     112                     100                     100                       0                       0                       0
60                     114                     102              105.656854                       0                       0                       0
61                     114                     102              102.828427                       0                       0                       0
62                     114                     102                     100                       0                       0                       0
63                     116                     100              105.656854                       0                       0                       0
64                     116                     100              102.828427                       0                       0                       0
65                     116                     100                     100                       0                       0                       0
66                     118                     102              105.656854                       0                       0                       0
67                     118                     102              102.828427                       0                       0                       0
68                     118                     102                     100                       0                       0                       0
69                     120                     100              105.656854                       0                       0                       0
70                     120                     100              102.828427                       0                       0                       0
71                     120                     100                     100                       0                       0                       0
72                     122                     102              105.656854                       0                       0                       0
73                     122                     102              102.828427                       0                       0                       0
74                     122                     102                     100                       0                       0                       0
75                     124                     100              105.656854                       0                       0                       0
76                     124                     100              102.828427                       0                       0                       0
77                     124                     100                     100                       0                       0                       0
78                     126                     102              105.656854                       0                       0                       0
79                     126                     102              102.828427                       0                       0                       0
80                     126                     102                     100                       0                       0                       0
81                     128                     100              105.656854                       0                       0                       0
82                     128                     100              102.828427                       0                       0                       0
83                     128                     100                     100                       0                       0                       0
84                     130                     102              105.656854                       0                       0                       0
85                     130                     102              102.828427                       0                       0                       0
86                     130                     102                     100                       0                       0                       0
87                     100                     104              105.656854                       0                       0                       0
88                     100                     104              102.828427                       0                       0                       0
89                     100                     104                     100                       0                       0                       0
90                     102                     106              105.656854                       0                       0                       0
91                     102                     106              102.828427                       0                       0                       0
92                     102                     106                     100                       0                       0                       0
93                     104                     104              105.656854                       0                       0                       0
94                     104                     104              102.828427                       0                       0                       0
95                     104                     104                     100                       0                       0                       0
96                     106                     106              105.656854                       0                       0                       0
97                     106                     106              102.828427                       0                       0                       0
98                     106                     106                     100                       0                       0                       0
99                     108                     104              105.656854                       0                       0                       0
100                     108                     104              102.828427                       0                       0                       0
101                     108                     104                     100                       0                       0                       0
102                     110                     106              105.656854                       0                       0                       0
103                     110                     106              102.828427                       0                       0                       0
104                     110                     106                     100                       0                       0                       0
105                     112                     104              105.656854                       0                       0                       0
106                     112                     104              102.828427                       0                       0                       0
107                     112                     104                     100                       0                       0                       0
108                     114                     106              105.656854                       0                       0                       0
109                     114                     106              102.828427                       0                       0                       0
110                     114                     106                     100                       0                       0                       0
111                     116                     104              105.656854                       0                       0                       0
112                     116                     104              102.828427                       0                       0                       0
113                     116                     104                     100                       0                       0                       0
114                     118                     106              105.656854                       0                       0                       0
115                     118                     106              102.828427                       0                       0                       0
116                     118                     106                     100                       0                       0                       0
117                     120                     104              105.656854                       0                       0                       0
118                     120                     104              102.828427                       0                       0                       0
119                     120                     104                     100                       0                       0                       0
120                     122                     106              105.656854                       0                       0                       0
121                     122                     106              102.828427                       0                       0                       0
122                     122                     106                     100                       0                       0                       0
123                     124                     104              105.656854                       0                       0                       0
124                     124                     104              102.828427                       0                       0                       0
125                     124                     104                     100                       0                       0                       0
126                     126                     106              105.656854                       0                       0                       0
127                     126                     106              102.828427                       0                       0                       0
128                     126                     106                     100                       0                       0                       0
129                     128                     104              105.656854                       0                       0                       0
130                     128                     104              102.828427                       0                       0                       0
131                     128                     104                     100                       0                       0                       0
132                     130                     106              105.656854                       0                       0                       0
133                     130                     106              102.828427                       0                       0                       0
134                     130                     106                     100                       0                       0                       0
135                     100                     108              105.656854                       0                       0                       0
136                     100                     108              102.828427                       0                       0                       0
137                     100                     108                     100                       0                       0                       0
138                     102                     110              105.656854                       0                       0                       0
139                     102                     110              102.828427                       0                       0                       0
140                     102                     110                     100                       0                       0                       0
141                     104                     108              105.656854                       0                       0                       0
142                     104                     108              102.828427                       0                       0                       0
143                     104                     108                     100                       0                       0                       0
144                     106                     110              105.656854                       0                       0                       0
145                     106                     110              102.828427                       0                       0                       0
146                     106                     110                     100                       0                       0                       0
147                     108                     108              105.656854                       0                       0                       0
148                     108                     108              102.828427                       0                       0                       0
149                     108                     108                     100                       0                       0                       0
150                     110                     110              105.656854                       0                       0                       0
151                     110                     110              102.828427                       0                       0                       0
152                     110                     110                     100                       0                       0                       0
153                     112                     108              105.656854                       0                       0                       0
154                     112                     108              102.828427                       0                       0                       0
155                     112                     108                     100                       0                       0                       0
156                     114                     110              105.656854                       0                       0                       0
157                     114                     110              102.828427                       0                       0                       0
158                     114                     110                     100                       0                       0                       0
159                     116                     108              105.656854                       0                       0                       0
160                     116                     108              102.828427                       0                       0                       0
161                     116                     108                     100                       0                       0                       0
162                     118                     110              105.656854                       0                       0                       0
163                     118                     110              102.828427                       0                       0                       0
164                     118                     110                     100                       0                       0                       0
165                     120                     108              105.656854                       0                       0                       0
166                     120                     108              102.828427                       0                       0                       0
167                     120                     108                     100                       0                       0                       0
168                     122                     110              105.656854                       0                       0                       0
169                     122                     110              102.828427                       0                       0                       0
170                     122                     110                     100                       0                       0                       0
171                     124                     108              105.656854                       0                       0                       0
172                     124                     108              102.828427                       0                       0                       0
173                     124                     108                     100                       0                       0                       0
174                     126                     110              105.656854                       0                       0                       0
175                     126                     110              102.828427                       0                       0                       0
176                     126                     110                     100                       0                       0                       0
177                     128                     108              105.656854                       0                       0                       0
178                     128                     108              102.828427                       0                       0                       0
179                     128                     108                     100                       0                       0                       0
180                     130                     110              105.656854                       0                       0                       0
181                     130                     110              102.828427                       0                       0                       0
182                     130                     110                     100                       0                       0                       0
183                     100                     112              105.656854                       0                       0                       0
184                     100                     112              102.828427                       0                       0                       0
185                     100                     112                     100                       0                       0                       0
186                     102                     114              105.656854                       0                       0                       0
187                     102                     114              102.828427                       0                       0                       0
188                     102                     114                     100                       0                       0                       0
189                     104                     112              105.656854                       0                       0                       0
190                     104                     112              102.828427                       0                       0                       0
191                     104                     112                     100                       0                       0                       0
192                     106                     114              105.656854                       0                       0                       0
193                     106                     114              102.828427                       0                       0                       0
194                     106                     114                     100                       0                       0                       0
195                     108                     112              105.656854                       0                       0                       0
196                     108                     112              102.828427                       0                       0                       0
197                     108                     112                     100                       0                       0                       0
198                     110                     114              105.656854                       0                       0                       0
199                     110                     114              102.828427                       0                       0                       0
200                     110                     114                     100                       0                       0                       0
201                     112                     112              105.656854                       0                       0                       0