ITEM: TIMESTEP
0
ITEM: NUMBER OF ATOMS
422
ITEM: BOX BOUNDS ff ff ff
0.0000000000000000e+00 2.3200000000000000e+02
0.0000000000000000e+00 2.3200000000000000e+02
0.0000000000000000e+00 2.3200000000000000e+02
ITEM: ATOMS id xu yu zu fx fy fz
1        113.145932193839        115.183520815677              108.656854     -0.0154707042769993      0.0231895582883177      0.0431311441233585
2        118.827484840071        115.189226241634              108.656854      0.0124920393383504      0.0237750604306933      0.0445799128634871
3        117.402344993917        115.187795112765              108.656854     -0.0104970530643789      0.0304307018553029      0.0566184854488635
4        114.571072038949        115.184951942936              108.656854      0.0161236786229641      0.0311068834407275       0.058556800053881
5        116.701075167769        113.949724850164              108.656854     -0.0272852989334955     0.00381326547760868      0.0599267597988719
6        115.274826990867        113.948292608712              108.656854      0.0358185083489127     0.00372845704182723      0.0628875017989996
7        115.272341865028        116.423022205388              108.656854     0.00874758193414827    -0.00305213319947473     0.00926851737197249
8        116.698590041422        116.424454446583              108.656854   -0.000909067533013841    -0.00274181098763818     0.00853255893423745
9        114.517756920757        112.748446241175              108.656854      0.0134718422055101     -0.0427555295058457      0.0559847174990449
10        117.460553482731        112.751401403886              108.656854     -0.0323432313632796     -0.0425307485321611      0.0562220880256228
11        114.512863550773        117.621345651893              108.656854       0.031468148685229     -0.0384690803542343       0.166097967936382
12        117.455660110655        117.624300814179              108.656854     -0.0509562199271195     -0.0375551203061298       0.163557959486702
13        113.127311260236        112.762444587898              108.656854    -0.00786012582449619      -0.035438501786322      0.0357715119694176
14        113.122448808114        117.604554762274              108.656854     -0.0299851448445749     -0.0281621790316592       0.113163860513865
15        118.850968226168        112.768192293572              108.656854    -0.00794829578168782     -0.0363065554885131      0.0394345155380791
16        118.846105771496         117.61030247058              108.656854        0.01432476811186     -0.0280852134865065       0.119828367583825
17        112.426795838139         116.39431994364              108.656854     0.00196181087152723     0.00559805217014858     0.00587094805704775
18         112.42922905874        113.971279815063              108.656854     -0.0158416152065074     0.00141220247781834      0.0352092957540796
19        119.546621196692        113.978427112272              108.656854      0.0268354800493096     0.00148891277615618      0.0356145415135287
20        119.544187975028         116.40146724296              108.656854     0.00811379827396115     0.00508867215667355     0.00486356807833113
21        120.955135022624        114.024435085822              108.656854       0.118578531091166       0.143075600740554      0.0447053763061383
22        120.952791362251        116.358288229576              108.656854         0.1490403236847     -0.0293719677338291      0.0302393644032147
23        111.020625673161        114.014458829493              108.656854   -4.51903099336071e-05       0.143250251048877       0.069947838058929
24        111.018282013145        116.348311972274              108.656854     -0.0313857729619493     -0.0265072452032641      0.0522728407735973
25        121.586726460739        115.191997078118              108.656854     -0.0610868689468599     0.00772832408637883      0.0392645004495769
26        110.386690574472        115.180749978664              108.656854     -0.0055049059577994     0.00706424622052096      0.0265430012739622
27        121.609196045824        117.385922140926              108.656854      -0.173226109524849      -0.119980501434442       0.146775191361137
28          121.6136022867        112.998121569695              108.656854       -0.17545321710409       -0.12497272477901      0.0859236978395484
29        110.359814750727        117.374625487296              108.656854       0.024182759612996      -0.128002774092829       0.115038632179179
30         110.36422099026         112.98682491673              108.656854      0.0252755024911562      -0.122774951253924      0.0525766330119323
31        112.599866822243        111.815454800093              108.656854     -0.0157268405656104     0.00982655122379079      0.0185892358901209
32        112.593103500599        118.550483321209              108.656854     -0.0175437315956749      0.0170056014302628    -0.00755215202713299
33        119.380313532952        111.822263734631              108.656854      0.0579634710032958      0.0109717270489197      0.0125901416638963
34        119.373550207142        118.557292260389              108.656854      0.0587120255783264      0.0152291307118151     -0.0132814227891351
35        114.962286572867         111.76896056388              108.656854     0.00403421480357963     0.00535194235706615     0.00133113900855234
36        114.955425108682        118.601722146141              108.656854     0.00726811024135887      0.0133055617328612    -0.00876355392979256
37        117.017991924022        111.771024909739              108.656854      0.0225879536726195     0.00553176978110859    0.000546004366027793
38        117.011130457531        118.603786490585              108.656854       0.018746609305516      0.0128199673954734    -0.00974940174322866
39                     100                     100              105.656854       0.212223339620452       0.214236428357283       -0.97561758932598
40                     100                     100              102.828427       0.431987187032552       0.430231397099891   -0.000470741715465206
41                     100                     100                     100       0.212143152055815       0.213571710608401       0.976410198157195
42                     102                     102              105.656854      -0.344593818825522      -0.348082921449901      -0.278124740373616
43                     102                     102              102.828427     -0.0508692137642802      -0.047967772576725     0.00088619933826272
44                     102                     102                     100      -0.344461039711687      -0.346677945470203       0.276682769381837
45                     104                     100              105.656854      0.0956181746605432       0.960481966020213      -0.808850068263683
46                     104                     100              102.828427     -0.0636029127992753       0.726409098750671   -0.000394732003245787
47                     104                     100                     100      0.0960120254170969       0.959618729747041        0.80947360255625
48                     106                     102              105.656854      -0.148660980986627      -0.515680364996563      -0.381656584342083
49                     106                     102              102.828427       0.141824562719128      0.0670032942247498    0.000603232782528034
50                     106                     102                     100      -0.149824541656373      -0.513990293718538       0.380750405815375
51                     108                     100              105.656854       0.108928428645425        1.06027783111825      -0.801885730838556
52                     108                     100              102.828427      -0.111055542659907        0.63976117577934    0.000235150336070771
53                     108                     100                     100       0.110257436721865        1.06008403521104       0.801433651382644
54                     110                     102              105.656854      -0.141755854095714      -0.581806119991725      -0.373744800754389
55                     110                     102              102.828427       0.146965995864522       0.134731303356485    -0.00108483681943927
56                     110                     102                     100      -0.144945297436406      -0.582546117769827       0.375606555366588
57                     112                     100              105.656854        0.13093368234801        1.10778835350834      -0.810877883345579
58                     112                     100              102.828427      -0.134925562268521       0.589880354086528     0.00142738939157158
59                     112                     100                     100       0.132496515556172         1.1096080311298       0.808470800047567
60                     114                     102              105.656854      -0.162913986913646      -0.616994706138265      -0.360710692093088
61                     114                     102              102.828427       0.168165469459432       0.173797631417297    -0.00336670891964538
62                     114                     102                     100      -0.164952754033457      -0.622192806053005        0.36624930234532
63                     116                     100              105.656854       0.166590321417499         1.1427316993389      -0.821578714759073
64                     116                     100              102.828427      -0.170773080612797       0.553041683583598     0.00210524533230443
65                     116                     100                     100        0.16658819614794        1.14584746710145        0.81807401173867
66                     118                     102              105.656854      -0.210389464102833      -0.649200093085901      -0.347279770775524
67                     118                     102              102.828427       0.214927741663693       0.207047481294631    -0.00336274423031609
68                     118                     102                     100      -0.208343383455985      -0.654387181429068       0.352811942687923
69                     120                     100              105.656854       0.223945311147686        1.18187486482576         -0.835445129193
70                     120                     100              102.828427      -0.229162651444443       0.513370691553921     0.00142578855566983
71                     120                     100                     100        0.22238391365799         1.1836896980984       0.833040639490469
72                     122                     102              105.656854      -0.290091639260698      -0.687980599619888      -0.330216344894523
73                     122                     102              102.828427       0.294465142415149       0.244298924412865    -0.00108312305981944
74                     122                     102                     100       -0.28691365667454      -0.688715084626956       0.332075198539485
75                     124                     100              105.656854       0.326946351623716        1.23692001848535      -0.852084194063161
76                     124                     100              102.828427      -0.323456773262408       0.459376983920829     0.00023673693324367
77                     124                     100                     100       0.325622579771913        1.23672837337523       0.851629657501394
78                     126                     102              105.656854      -0.462096457188657      -0.728473240139625      -0.332223362104038
79                     126                     102              102.828427        0.39758624317643       0.282177086138525    0.000596809083300099
80                     126                     102                     100      -0.460939362708384      -0.726795097157144       0.331327242905155
81                     128                     100              105.656854       0.708411259578585        1.34112540072034      -0.754650926945857
82                     128                     100              102.828427      -0.281066712259766       0.395792129496397   -0.000390515288131468
83                     128                     100                     100       0.708018717610601        1.34026867257016       0.755267682741274
84                     130                     102              105.656854       -1.34049286030355      -0.709251373949246      -0.755564386529765
85                     130                     102              102.828427      -0.395892212042797       0.281372600566927     0.00087873600820842
86                     130                     102                     100       -1.34062343121857      -0.707857167294217       0.754134363061966
87                     100                     104              105.656854       0.959436369159855       0.100443427945979      -0.808252869084523
88                     100                     104              102.828427       0.727464548218941     -0.0675052348476042    -0.00127739351045842
89                     100                     104                     100       0.958628879129917      0.0988836169937928        0.81035672458541
90                     102                     106              105.656854       -0.51458031093478       -0.15789480668516      -0.383255054535531
91                     102                     106              102.828427      0.0656077684441048       0.148640163256195     0.00269444067506788
92                     102                     106                     100      -0.512576191980428      -0.154331808605695       0.378936370128304
93                     104                     104              105.656854        0.24736634905091       0.253983884726075      -0.388101501226624
94                     104                     104              102.828427      -0.179952800283874      -0.185038721262411    -0.00177847418675872
95                     104                     104                     100       0.247214807765583       0.250752309984032       0.390915428406282
96                     106                     106              105.656854       -0.23337853340244      -0.247607515887226      -0.505999061707474
97                     106                     106              102.828427       0.224997129029456       0.234476118461565     0.00373698300812236
98                     106                     106                     100       -0.23377787124376       -0.23949019091573       0.499938434056691
99                     108                     104              105.656854       0.171639178101045       0.340031864492885       -0.37478235499216
100                     108                     104              102.828427      -0.176103186009871      -0.269388675582916   -0.000661726292994667
101                     108                     104                     100       0.175426863804387       0.336932084958535       0.375747558022402
102                     110                     106              105.656854      -0.176587854441396      -0.294902255751388      -0.490570556119616
103                     110                     106              102.828427       0.189432737096072       0.286116998886275   -0.000859104432215669
104                     110                     106                     100      -0.189612672357804      -0.291857029090558       0.491989194003855
105                     112                     104              105.656854       0.163855114903299       0.377776230290379       -0.39173894233124
106                     112                     104              102.828427      -0.172334705939459      -0.313678271205289     0.00386705272732426
107                     112                     104                     100       0.170837591279226       0.383071157417156       0.385299277022052
108                     114                     106              105.656854      -0.183894400512804      -0.300943983154981      -0.462583329015831
109                     114                     106              102.828427       0.195473361161319       0.309678311421105     -0.0112910196450317
110                     114                     106                     100      -0.194270039487249      -0.321660723480626       0.482880859609367
111                     116                     104              105.656854        0.19820947382731       0.401096474566208      -0.408291299852172
112                     116                     104              102.828427      -0.203408940660562      -0.342233558881925     0.00700451581664745
113                     116                     104                     100        0.19819227654799       0.413171163637886       0.396712706366183
114                     118                     106              105.656854      -0.245378870613224      -0.323231669494548        -0.4467162389675
115                     118                     106              102.828427       0.245374126202602       0.332605588173007     -0.0112618500533281
116                     118                     106                     100      -0.234943212363388      -0.343862208390557       0.466955700304305
117                     120                     104              105.656854       0.263554624276542        0.43447105937505      -0.422452443241211
118                     120                     104              102.828427      -0.266657983437985      -0.372198103124693     0.00385384164215025
119                     120                     104                     100       0.256582012675218       0.439729476637366       0.416035144390144
120                     122                     106              105.656854      -0.323591918380171      -0.364911623996488      -0.438803483220733
121                     122                     106              102.828427         0.3224884186609        0.35838939847853   -0.000846391807602895
122                     122                     106                     100      -0.310656038152441      -0.361835372857404         0.4402010517657
123                     124                     104              105.656854       0.369580491405641        0.46532532495723      -0.438110690590234
124                     124                     104              102.828427       -0.36355512311019      -0.398596384386634   -0.000655415282981127
125                     124                     104                     100        0.36581931388845       0.462241165380143       0.439065292964607
126                     126                     106              105.656854      -0.465849592102022      -0.371864716556603      -0.442890389194581
127                     126                     106              102.828427       0.401333385531751       0.362703031981059     0.00370796056493108
128                     126                     106                     100      -0.465460356304156      -0.363812260125912       0.436881010230771
129                     128                     104              105.656854       0.727804904027405       0.463464509258388      -0.330253504989945
130                     128                     104              102.828427       -0.28264323470169      -0.397717458568459    -0.00176362318843419
131                     128                     104                     100       0.727954417197697       0.460258643511657       0.333043959730387
132                     130                     106              105.656854       -1.23582148007009      -0.329139354194407        -0.8540829891287
133                     130                     106              102.828427      -0.459150444800199       0.324372099590513     0.00267241501933763
134                     130                     106                     100       -1.23780737846111      -0.325606007905367       0.849799168601742
135                     100                     108              105.656854        1.06386848791127       0.116906326041921      -0.799604058942344
136                     100                     108              102.828427       0.637723822344659       -0.11706136197636    -0.00288933917448026
137                     100                     108                     100        1.06084948436678       0.114297596547322       0.804283386708516
138                     102                     110              105.656854      -0.591752073089715      -0.155702164568028       -0.37999481291674
139                     102                     110              102.828427       0.139506896242759       0.156301053856982     0.00620693581560679
140                     102                     110                     100      -0.584030188734464      -0.150475420936529       0.370006060538451
141                     104                     108              105.656854       0.340293182445744       0.191176509613462      -0.369570778022273
142                     104                     108              102.828427      -0.267690310737265      -0.188390473962334      -0.006123475355019
143                     104                     108                     100       0.334815638237712       0.182375908815297       0.379558830295531
144                     106                     110              105.656854      -0.303669223813891      -0.221235134457292      -0.512328341340865
145                     106                     110              102.828427       0.283901861732706       0.210696264825069      0.0141898638814265
146                     106                     110                     100      -0.288337819235731      -0.199397789854407       0.484320938285518
147                     108                     108              105.656854       0.221343090177557       0.257878520530298      -0.353386712033669
148                     108                     108              102.828427      -0.227548232441877      -0.245807896253889    -0.00733858396914973
149                     108                     108                     100        0.22718664892205       0.236116200029301       0.368843544198004
150                     110                     110              105.656854      -0.163924833447208      -0.267595263030689      -0.506549081201185
151                     110                     110              102.828427       0.211940968003116       0.243793613431572      0.0078763161186623
152                     110                     110                     100      -0.220322649538802      -0.232609458307939       0.474905900448072
153                     112                     108              105.656854       0.163007620354808       0.255079607995954      -0.397245046147914
154                     112                     108              102.828427      -0.193870167099946      -0.268989095565609     0.00996211705832146
155                     112                     108                     100       0.199781422851805       0.267226865349034       0.377216946906746
156                     114                     110              105.656854      -0.167355736571986      -0.178969652532727      -0.354044759180231
157                     114                     110              102.828427       0.205815358485044       0.246721519936529     -0.0320599896604008
158                     114                     110                     100      -0.212374623221472      -0.249467809798428        0.47167821787102
159                     116                     108              105.656854       0.220312953925924       0.240088001161613      -0.438175799968354
160                     116                     108              102.828427      -0.226132524904483      -0.279870552692191       0.024672877326249
161                     116                     108                     100       0.220194683770539       0.285709331290923       0.386923834308173
162                     118                     110              105.656854      -0.295843588715314       -0.19019663564084      -0.337073182825437
163                     118                     110              102.828427       0.269654869326479       0.258090034615121      -0.031922771449724
164                     118                     110                     100      -0.250337104962509      -0.260443626017398       0.454286849636414
165                     120                     108              105.656854       0.311966469856933       0.288950770925628      -0.431861665559033
166                     120                     108              102.828427      -0.294323647973433      -0.303710094078881     0.00987124410600311
167                     120                     108                     100       0.275274834442959       0.300828887675834       0.412053158577147
168                     122                     110              105.656854      -0.371951709788444      -0.301346409090988      -0.450185206505297
169                     122                     110              102.828427       0.337594387116941       0.278417593745104     0.00795269388120366
170                     122                     110                     100      -0.316423797403122      -0.266113981878624       0.418452962050457
171                     124                     108              105.656854        0.37545014254853       0.327360806968813      -0.425848517941518
172                     124                     108              102.828427      -0.369372164369559      -0.317700373535356    -0.00730174759777256
173                     124                     108                     100       0.369724533206838       0.305751268618127       0.441172390278112
174                     126                     110              105.656854      -0.431856224426784      -0.276967267311047      -0.440740067192491
175                     126                     110              102.828427       0.379722296672505       0.268405418034391       0.014085014700772
176                     126                     110                     100      -0.447084271586315      -0.255311571521681       0.413026203596619
177                     128                     108              105.656854       0.686257744235354       0.295231982007343      -0.324897276819146
178                     128                     108              102.828427      -0.246085849243426      -0.295895140500662    -0.00607281125159746
179                     128                     108                     100       0.691686834299844       0.286509802837167       0.334796502192025
180                     130                     110              105.656854       -1.17776385311286      -0.228036677946929      -0.839952080793671
181                     130                     110              102.828427      -0.513606766146311       0.231045582493495     0.00615631897392484
182                     130                     110                     100       -1.18541509259437      -0.222851182380773        0.83004671819107
183                     100                     112              105.656854        1.11934021411035       0.137620225914997      -0.806070121177093
184                     100                     112              102.828427       0.582856387878908      -0.139758097878484     -0.0048148931019026
185                     100                     112                     100        1.11300018743776       0.135583980594539       0.813815618372286
186                     102                     114              105.656854      -0.640116982231286      -0.168983579413089      -0.371946010852784
187                     102                     114              102.828427       0.185600648551384        0.17218090423324     0.00913586023055239
188                     102                     114                     100      -0.626805219784965      -0.167279319722647       0.357147217203472
189                     104                     112              105.656854       0.404848503145414       0.185888804306203      -0.372555414067749
190                     104                     112              102.828427      -0.323239583119679      -0.184890822577362     -0.0133133140903734
191                     104                     112                     100       0.385109940876696       0.177248799235767       0.395779592177356
192                     106                     114              105.656854      -0.356553941321154      -0.203490549186008      -0.518758879431296
193                     106                     114              102.828427       0.322257842912987       0.206066351027265      0.0245808982180783
194                     106                     114                     100      -0.322519967108427      -0.199113051326767        0.46601647075529
195                     108                     112              105.656854        0.29324258428633       0.246933546833678      -0.284670166618353
196                     108                     112              102.828427      -0.261315545335587      -0.221710857657323      -0.025127902500307
197                     108                     112                     100       0.260748876321195       0.210728680061735        0.39014330859023
198                     110                     114              105.656854      -0.147557312742545      -0.169204416446323      -0.723730198660027
199                     110                     114              102.828427       0.221594114715995       0.225264542819334      0.0153698033080918
200                     110                     114                     100      -0.238862034426374       -0.22009543883922       0.456414594737535
201                     112                     112              105.656854      0.0744181154508002       0.221726057537969      -0.429508848625367