ITEM: TIMESTEP
0
ITEM: NUMBER OF ATOMS
422
ITEM: BOX BOUNDS ff ff ff
0.0000000000000000e+00 2.3200000000000000e+02
0.0000000000000000e+00 2.3200000000000000e+02
0.0000000000000000e+00 2.3200000000000000e+02
ITEM: ATOMS id xu yu zu fx fy fz
1        113.145932193839        115.983520815677              108.456854    -0.00958892034914864    -0.00026052917618029      0.0350031442033179
2        118.827484840071        115.989226241634              108.456854      0.0068113282677919   -0.000581687244116406      0.0362066603507126
3        117.402344993917        115.987795112765              108.456854    -0.00481911484277444     0.00384460291339231      0.0452560888539245
4        114.571072038949        115.984951942936              108.456854      0.0105974645127762     0.00413660929660528      0.0462986733857545
5        116.701075167769        114.749724850164              108.456854     -0.0390739963452873      0.0289418642452852      0.0948958487468307
6        115.274826990867        114.748292608712              108.456854      0.0480837543681516      0.0300528393933255        0.09883188236049
7        115.272341865028        117.223022205388              108.456854      0.0468212148084222     -0.0225309976095735      0.0962825657022847
8        116.698590041422        117.224454446583              108.456854     -0.0378507708046012     -0.0212263395526984      0.0919845289636542
9        114.517756920757        113.548446241175              108.456854      0.0633738395402773     -0.0658769049969776       0.318625326748706
10        117.460553482731        113.551401403886              108.456854     -0.0837959230446172     -0.0648384526427438       0.315262054238651
11        114.512863550773        118.421345651893              108.456854      0.0640821334957178      0.0442520460713799       0.327282494537761
12        117.455660110655        118.424300814179              108.456854     -0.0846255399896007      0.0437880681646899       0.320403265814672
13        113.127311260236        113.562444587898              108.456854     -0.0688589075154696      -0.050505750243404       0.227651206839576
14        113.122448808114        118.404554762274              108.456854     -0.0703340186929265      0.0319407458351016        0.23216986330844
15        118.850968226168        113.568192293572              108.456854      0.0529632630002542     -0.0510988390660037       0.236082633982125
16        118.846105771496         118.41030247058              108.456854      0.0543573959496044      0.0341987145193257       0.241765937043096
17        112.426795838139         117.19431994364              108.456854      -0.021128727896284    -0.00508693751723912      0.0597008720924747
18         112.42922905874        114.771279815063              108.456854     -0.0223452192078674      0.0147132587181012      0.0619921634336317
19        119.546621196692        114.778427112272              108.456854      0.0335573340302805      0.0153859286775778      0.0625243987931046
20        119.544187975028         117.20146724296              108.456854      0.0328656252458577    -0.00629990617779132      0.0613211416482644
21        120.955135022624        114.824435085822              108.456854        0.12160922393019       0.130676060214233       0.103552679360008
22        120.952791362251        117.158288229576              108.456854        0.12022229006718     -0.0288682990155085      0.0980200935510507
23        111.020625673161        114.814458829493              108.456854    -0.00134657025749187       0.133380706084279       0.128940583891507
24        111.018282013145        117.148311972274              108.456854    -0.00212504652123976     -0.0254839063605593       0.122239733136697
25        121.586726460739        115.991997078118              108.456854     -0.0642338711831559     -0.0261639162144087      0.0144564005368215
26        110.386690574472        115.980749978664              108.456854    -0.00307380645446928     -0.0270647036639911      0.0012948313886754
27        121.609196045824        118.185922140926              108.456854      -0.198234748078286     -0.0339945943280549       0.298475443980876
28          121.6136022867        113.798121569695              108.456854      -0.204046829923606     -0.0921400103251219       0.287831991610951
29        110.359814750727        118.174625487296              108.456854      0.0473320249044909     -0.0446674149584778        0.27222380446004
30         110.36422099026         113.78682491673              108.456854      0.0508073099824278     -0.0935112945400891       0.257751853792166
31        112.599866822243        112.615454800093              108.456854     -0.0121014475124655      0.0303126912916276      0.0211296570074921
32        112.593103500599        119.350483321209              108.456854     -0.0118017163684636      0.0120275609156587        0.01503253975521
33        119.380313532952        112.622263734631              108.456854      0.0548503500885512      0.0309969901523294      0.0150210105428142
34        119.373550207142        119.357292260389              108.456854      0.0526193110470053      0.0101824945742188      0.0091778992405284
35        114.962286572867         112.56896056388              108.456854      0.0023276508928519      0.0157857954185328     0.00470749861902308
36        114.955425108682        119.401722146141              108.456854     0.00223840221934169      0.0121456521560158    0.000855115474549562
37        117.017991924022        112.571024909739              108.456854      0.0246226062362613       0.016017569380494     0.00391832012712473
38        117.011130457531        119.403786490585              108.456854      0.0236866035234816      0.0115461355923536    0.000295622241318401
39                     100                     100              105.656854       0.212169494625431       0.214023844735484      -0.975693304046965
40                     100                     100              102.828427        0.43201381959864       0.430380635448192   -0.000374396709993536
41                     100                     100                     100       0.212139773958399       0.213481992989409       0.976323675486311
42                     102                     102              105.656854      -0.344493287943135      -0.347670583488004      -0.277954918464252
43                     102                     102              102.828427     -0.0509044376845331     -0.0482249356780847    0.000689386813551952
44                     102                     102                     100      -0.344470378391678      -0.346545818892503        0.27683688347367
45                     104                     100              105.656854      0.0957364490026458       0.960148040421198      -0.808946545059203
46                     104                     100              102.828427     -0.0637117402980226       0.726626455932837   -0.000279713198973761
47                     104                     100                     100      0.0961023815291804       0.959500560373209       0.809383127191602
48                     106                     102              105.656854      -0.148997432442269       -0.51503723597918      -0.381449146655541
49                     106                     102              102.828427       0.142094636578782      0.0666461383985408     0.00039039209851025
50                     106                     102                     100      -0.150013913654676      -0.513830530979935       0.380885165379427
51                     108                     100              105.656854       0.109430368948256        1.06009345489195      -0.801900111708806
52                     108                     100              102.828427      -0.111418212881342       0.639870315960588    0.000246754108529438
53                     108                     100                     100       0.110488338138292        1.06003182645324       0.801437133982231
54                     110                     102              105.656854      -0.142896444991592        -0.5817858087451       -0.37385857566189
55                     110                     102              102.828427         0.1476791507443       0.134721434368175   -0.000957554206569536
56                     110                     102                     100      -0.145328172814583      -0.582541958212412       0.375496633093973
57                     112                     100              105.656854       0.131561324953315        1.10827931724052      -0.810644847661372
58                     112                     100              102.828427      -0.135344413121384       0.589592004916774     0.00116494852114599
59                     112                     100                     100       0.132737015360187        1.10974591219637       0.808677558310288
60                     114                     102              105.656854      -0.163676985175504      -0.618424805319459      -0.361434253551158
61                     114                     102              102.828427       0.168613983556767        0.17449036269069    -0.00266569598168395
62                     114                     102                     100      -0.165174300698831      -0.622453711238654       0.365791929745303
63                     116                     100              105.656854       0.166589084956411        1.14368821294669      -0.821185366048119
64                     116                     100              102.828427      -0.170772255987274       0.552490688892896     0.00167161626492153
65                     116                     100                     100       0.166587708741926        1.14610357567465       0.818400043689942
66                     118                     102              105.656854      -0.209622588497467      -0.650625561507497      -0.348001845385982
67                     118                     102              102.828427       0.214476794626535        0.20773787803181    -0.00266305390087325
68                     118                     102                     100      -0.208120469802982      -0.654647079482557       0.352355344150861
69                     120                     100              105.656854       0.223317852648555        1.18236334098135      -0.835212636884932
70                     120                     100              102.828427      -0.228743754543746       0.513083918130903     0.00116394804760784
71                     120                     100                     100       0.222143246328505        1.18382670749151       0.833246948100741
72                     122                     102              105.656854      -0.288955268821064      -0.687957193228616      -0.330329591926865
73                     122                     102              102.828427       0.293754044482984       0.244286849555776   -0.000956545168490223
74                     122                     102                     100      -0.286531502116391      -0.688709584859775         0.3319659268728
75                     124                     100              105.656854       0.326446493264596        1.23673570281523       -0.85209821112337
76                     124                     100              102.828427      -0.323095419828168       0.459486464858268    0.000248057625301206
77                     124                     100                     100        0.32539235664978        1.23667569844394       0.851633212544518
78                     126                     102              105.656854      -0.461762394386961      -0.727833048700972      -0.332017745630477
79                     126                     102              102.828427       0.397317897137984        0.28182068763255    0.000385473589230971
80                     126                     102                     100      -0.460751006238535      -0.726635090663571       0.331461351478223
81                     128                     100              105.656854        0.70829356527421        1.34079309793886      -0.754746549274842
82                     128                     100              102.828427      -0.280958434900029       0.396008771237644   -0.000276386971142948
83                     128                     100                     100       0.707928794878445        1.34015061144759       0.755177781902967
84                     130                     102              105.656854       -1.34059273581717      -0.708841370890618      -0.755396041418478
85                     130                     102              102.828427      -0.395857064864497       0.281116439250471    0.000683413784835088
86                     130                     102                     100       -1.34061430558141      -0.707725200516523        0.75428754154356
87                     100                     104              105.656854       0.959138888785684       0.100129113664142      -0.808454793314998
88                     100                     104              102.828427        0.72763299340521     -0.0673206700056884     -0.0010481653031335
89                     100                     104                     100       0.958559579103932      0.0987978510522968       0.810177194837079
90                     102                     106              105.656854      -0.513901910278466      -0.157302047872686      -0.382736653226546
91                     102                     106              102.828427      0.0653028954872205       0.148372220812113     0.00219409196436619
92                     102                     106                     100      -0.512488997619001      -0.154248208117229       0.379255502608211
93                     104                     104              105.656854       0.247170686122527       0.253102405011219      -0.388538306262106
94                     104                     104              102.828427       -0.17992740389573      -0.184587448282851    -0.00134795264754117
95                     104                     104                     100       0.247266929244086       0.250570503899287       0.390642457577362
96                     106                     106              105.656854      -0.233030610236078      -0.245489496429992      -0.504653218865023
97                     106                     106              102.828427       0.225096214864638       0.233721418496749     0.00275362369941602
98                     106                     106                     100      -0.233948641463469      -0.239286337603134       0.500383809500705
99                     108                     104              105.656854       0.172718198062828       0.338780845520568      -0.375229446579895
100                     108                     104              102.828427      -0.176796570446054      -0.268851231024236   -0.000310902305895747
101                     108                     104                     100       0.175808095998426       0.336748542136718       0.375595924912347
102                     110                     106              105.656854      -0.180394531279063       -0.29308602071442      -0.490045922358073
103                     110                     106              102.828427       0.191101899380928       0.285534760841603    -0.00111820516344659
104                     110                     106                     100      -0.190271467425326      -0.291698679361012       0.491990061723043
105                     112                     104              105.656854       0.166227355088753       0.378830106167698      -0.390877212585368
106                     112                     104              102.828427      -0.173546240877762      -0.314054718690541     0.00316169703780083
107                     112                     104                     100       0.171361198040129       0.383164224304476        0.38570746180116
108                     114                     106              105.656854      -0.187121197830905      -0.305710911337689      -0.466835071532968
109                     114                     106              102.828427       0.196768530374087       0.310630679723042     -0.0090053451137802
110                     114                     106                     100      -0.194713566427968       -0.32176682454043       0.481936563238582
111                     116                     104              105.656854       0.198202204128606        0.40422009906306      -0.406349036286945
112                     116                     104              102.828427      -0.203405295549184      -0.343384312801314     0.00548053432168095
113                     116                     104                     100        0.19819065495179        0.41347894847329       0.397509758865672
114                     118                     106              105.656854       -0.24212819579049      -0.327970212370874      -0.450949894627994
115                     118                     106              102.828427       0.244069261094832       0.333550450234851     -0.0089846979027612
116                     118                     106                     100       -0.23449572212315      -0.343966251503153       0.466014589103705
117                     120                     104              105.656854       0.261185156185335       0.435510860229049      -0.421596339370708
118                     120                     104              102.828427      -0.265446754642593      -0.372568389756018     0.00315272652772225
119                     120                     104                     100       0.256057917920763       0.439820151924746       0.416441109767488
120                     122                     106              105.656854      -0.319816521087235      -0.363083219928263      -0.438275261830309
121                     122                     106              102.828427       0.320828309075558       0.357800162000029    -0.00110937640937887
122                     122                     106                     100      -0.309999219445652      -0.361673881123293       0.440204873842875
123                     124                     104              105.656854       0.368510700641914       0.464078036316754      -0.438554410892593
124                     124                     104              102.828427      -0.362866483811709      -0.398058302279274   -0.000306164263080879
125                     124                     104                     100       0.365439989622267       0.462056311212837       0.438913625303997
126                     126                     106              105.656854      -0.466198909890962      -0.369761585602506      -0.441558489675973
127                     126                     106              102.828427       0.401237864156192       0.361949615301122     0.00273144906460859
128                     126                     106                     100      -0.465291775520583      -0.363607131425697       0.437325016380281
129                     128                     104              105.656854       0.727999765958545       0.462588644307276      -0.330686182244542
130                     128                     104              102.828427      -0.282669211111566      -0.397267754890112    -0.00133637026979012
131                     128                     104                     100       0.727903104897888       0.460076688452477       0.332772422290244
132                     130                     106              105.656854       -1.23649507365882       -0.32855030394675      -0.853569662200099
133                     130                     106              102.828427      -0.458846696540367       0.324104716045931     0.00217598949011245
134                     130                     106                     100       -1.23789486250099      -0.325521857577139       0.850116580776356
135                     100                     108              105.656854        1.06316666860281       0.116807362937195      -0.800013879211266
136                     100                     108              102.828427       0.638077383414329      -0.117073495248507    -0.00249600123358818
137                     100                     108                     100        1.06071572199073       0.114350622280493        0.80402576202905
138                     102                     110              105.656854      -0.590363563104894      -0.155973423398926      -0.378995881144732
139                     102                     110              102.828427       0.139008826325647       0.156617074206607     0.00547362253180654
140                     102                     110                     100       -0.58390782388483       -0.15069724540891       0.370363967678988
141                     104                     108              105.656854       0.338556499614713       0.190089141627625      -0.371157682422057
142                     104                     108              102.828427      -0.267186661820294      -0.188138113344955    -0.00499658537388947
143                     104                     108                     100       0.334750665711199        0.18237810019166       0.379038869507809
144                     106                     110              105.656854      -0.299218178306413      -0.220556796833068      -0.506572309220339
145                     106                     110              102.828427       0.283428338369708       0.211159636383918      0.0119638905891962
146                     106                     110                     100      -0.288398842422897      -0.199664840403982       0.484936551028275
147                     108                     108              105.656854       0.221342630611513       0.252153061998687      -0.358604336209206
148                     108                     108              102.828427      -0.228277992451413      -0.244907111197526    -0.00530181290728134
149                     108                     108                     100       0.227593296423588       0.235994700530342       0.368302383249983
150                     110                     110              105.656854      -0.175566814805009      -0.260280105603483      -0.491513948459192
151                     110                     110              102.828427       0.214039305801547       0.243837272221033     0.00560807238394757
152                     110                     110                     100       -0.22086462094008      -0.232583775494777       0.475107092209373
153                     112                     108              105.656854       0.173366505929164       0.255363617315407      -0.393549534141492
154                     112                     108              102.828427      -0.196691821920685       -0.26872677915492     0.00863078057018639
155                     112                     108                     100       0.200549966716136        0.26702060564772       0.377707602877892
156                     114                     110              105.656854      -0.175212586006667      -0.176208119878888      -0.381024559019012
157                     114                     110              102.828427       0.207448106102498       0.244904235266594     -0.0287441910247559
158                     114                     110                     100      -0.212737333676473      -0.248772115254428       0.470788259231676
159                     116                     108              105.656854       0.220278085284112       0.247041473924311      -0.425712686642211
160                     116                     108              102.828427       -0.22612117352742      -0.280309998342464      0.0201807892952833
161                     116                     108                     100        0.22019102738065       0.285467284184231       0.388234682694236
162                     118                     110              105.656854       -0.28787295085842      -0.187512419695464      -0.364017263554212
163                     118                     110              102.828427       0.267998647138108       0.256274361317155     -0.0286283778798894
164                     118                     110                     100       -0.24996759991576      -0.259748374399184       0.453402927222601
165                     120                     108              105.656854       0.301627037537545       0.289158286254101      -0.428240207660864
166                     120                     108              102.828427      -0.291501867310933      -0.303432752474663     0.00856437525633811
167                     120                     108                     100       0.274504587539042       0.300619480349272        0.41253638790253
168                     122                     110              105.656854      -0.360558618693532      -0.293948005475289      -0.435159655323723
169                     122                     110              102.828427       0.335513536565142        0.27844182864985      0.0056591066296325
170                     122                     110                     100      -0.315883275462397      -0.266085818006314       0.418663636551485
171                     124                     108              105.656854       0.375478473336103       0.321674757750065      -0.431009120894319
172                     124                     108              102.828427      -0.368656130605416      -0.316793711680862      -0.005272312250781
173                     124                     108                     100       0.369321731850483       0.305626361218634       0.440629409203671
174                     126                     110              105.656854      -0.436282060155186      -0.276274949228715      -0.435056881799245
175                     126                     110              102.828427       0.380203866203198       0.268856428310729      0.0118699239588133
176                     126                     110                     100      -0.447026895034962      -0.255574769929461       0.413643164451339
177                     128                     108              105.656854       0.687981178168398       0.294151691746693      -0.326466039294569
178                     128                     108              102.828427      -0.246589283665157      -0.295641267538146    -0.00495452165648949
179                     128                     108                     100       0.691753328302068        0.28651007399841       0.334278420990155
180                     130                     110              105.656854       -1.17914346837323      -0.228302603204753      -0.838963235207658
181                     130                     110              102.828427      -0.513109087973861       0.231357186994162     0.00542791454522172
182                     130                     110                     100       -1.18553858615788       -0.22307062036063        0.83040368367139
183                     100                     112              105.656854        1.11876618360038       0.138254150700732      -0.806529462195927
184                     100                     112              102.828427       0.583061910484739      -0.140234105339573    -0.00448820280894423
185                     100                     112                     100        1.11295497664547       0.135879017841064       0.813660189527596
186                     102                     114              105.656854      -0.639972511943027      -0.170610306403872      -0.371286152289941
187                     102                     114              102.828427       0.185750101509324       0.173178399075479     0.00893394161428398
188                     102                     114                     100      -0.626908390135501      -0.167782293355292       0.357131229933371
189                     104                     112              105.656854       0.402955804603287        0.18813744584462      -0.374806659310317
190                     104                     112              102.828427      -0.322967391088774      -0.186097174055108     -0.0123518055506359
191                     104                     112                     100       0.385106231991626       0.177774659785718       0.395500270166491
192                     106                     114              105.656854      -0.360320414408697      -0.209281892604498      -0.517950256996634
193                     106                     114              102.828427       0.323074310016653       0.208273288213206      0.0250064044777136
194                     106                     114                     100      -0.322593255781219      -0.199837533133292       0.465741723424665
195                     108                     112              105.656854       0.289045872499412       0.263921242178921      -0.302312862689778
196                     108                     112              102.828427      -0.262015776942359      -0.224415981110954     -0.0238691766711276
197                     108                     112                     100       0.260876927590121       0.211248827740548       0.389976450190055
198                     110                     114              105.656854      -0.184886208334627      -0.206677897585462      -0.938027466748561
199                     110                     114              102.828427       0.220564453250658        0.22591110400358      0.0188303659743094
200                     110                     114                     100      -0.238352247739725      -0.220126781700256       0.456077813272606
201                     112                     112              105.656854      0.0787455991471592        0.22950619101373      -0.438219988651743