ITEM: TIMESTEP
0
ITEM: NUMBER OF ATOMS
422
ITEM: BOX BOUNDS ff ff ff
0.0000000000000000e+00 2.3200000000000000e+02
0.0000000000000000e+00 2.3200000000000000e+02
0.0000000000000000e+00 2.3200000000000000e+02
ITEM: ATOMS id xu yu zu fx fy fz
1        113.145932193839        115.983520815677              112.156854     0.00304476611409152    -0.00112668484533017   -0.000877799267897896
2        118.827484840071        115.989226241634              112.156854    -0.00533524879054055    -0.00109889857957555   -0.000484401746348214
3        117.402344993917        115.987795112765              112.156854     0.00247042413963352     0.00242243487788483    -0.00131166241225744
4        114.571072038949        115.984951942936              112.156854     0.00245009492117643     0.00246155484787243   -0.000895923556325853
5        116.701075167769        114.749724850164              112.156854     0.00291676089305264     0.00428901316232435    -0.00110106336592191
6        115.274826990867        114.748292608712              112.156854     0.00357282324562403     0.00429945736098056   -0.000825750178168328
7        115.272341865028        117.223022205388              112.156854     0.00354620956561499     0.00219830032971539    -0.00130421935694171
8        116.698590041422        117.224454446583              112.156854     0.00285735925778434     0.00215524613968202    -0.00157522897068044
9        114.517756920757        113.548446241175              112.156854    -0.00288600283674005    -0.00509325882021025    -0.00166755760791183
10        117.460553482731        113.551401403886              112.156854     -0.0124763316479074    -0.00513190580776323   -0.000316156224697604
11        114.512863550773        118.421345651893              112.156854    -0.00282814048027338     -0.0103770844877054    0.000601169653287621
12        117.455660110655        118.424300814179              112.156854     -0.0121045553296303     -0.0101036593319049     0.00191123750477446
13        113.127311260236        113.562444587898              112.156854      0.0150229825217277    -0.00665519104095584    -0.00207681938047547
14        113.122448808114        118.404554762274              112.156854      0.0149424509167756    -0.00641049830793799   -0.000168479712595836
15        118.850968226168        113.568192293572              112.156854      -0.028205357515285    -0.00674490595510902    0.000207486134161178
16        118.846105771496         118.41030247058              112.156854     -0.0277715023184394     -0.0059880938566533     0.00204797801889635
17        112.426795838139         117.19431994364              112.156854     0.00312298052012402     0.00693782805186355   -0.000714998387498151
18         112.42922905874        114.771279815063              112.156854     0.00308512245966086     0.00101133436107032    -0.00014220054044159
19        119.546621196692        114.778427112272              112.156854     0.00508039039604293    0.000951550661017551    -0.00191640520917278
20        119.544187975028         117.20146724296              112.156854     0.00492214774364779     0.00668242022375127    -0.00246391181832601
21        120.955135022624        114.824435085822              112.156854       0.104235229980168       0.134590232141256     -0.0186565084305216
22        120.952791362251        117.158288229576              112.156854        0.10233352481159     -0.0501240056093433     -0.0244585313605051
23        111.020625673161        114.814458829493              112.156854    -0.00964137953418917       0.135510947329049       0.010860056890783
24        111.018282013145        117.148311972274              112.156854    -0.00855403690808029     -0.0462129897496722     0.00466014902221323
25        121.586726460739        115.991997078118              112.156854     -0.0348327543726637     -0.0224379611711351      0.0120939704730684
26        110.386690574472        115.980749978664              112.156854     -0.0168287836143112     -0.0239560378092225    -0.00633142358201068
27        121.609196045824        118.185922140926              112.156854      -0.117146868126606     -0.0543798592752426       0.035042946662716
28          121.6136022867        113.798121569695              112.156854      -0.122397900501655     -0.0479377805688618      0.0217617643943349
29        110.359814750727        118.174625487296              112.156854      0.0027105045304105      -0.061660984124468    -0.00591118020487881
30         110.36422099026         113.78682491673              112.156854     0.00523022717132296     -0.0474375112328769     -0.0202586551939231
31        112.599866822243        112.615454800093              112.156854     -0.0314996588287016      0.0105906480501315     0.00471524842328697
32        112.593103500599        119.350483321209              112.156854     -0.0310428842782468      0.0244054083191656    -0.00246999449993005
33        119.380313532952        112.622263734631              112.156854      0.0666208358382041      0.0111486115706533    -0.00253973015583122
34        119.373550207142        119.357292260389              112.156854       0.064825399169332      0.0227220643462029    -0.00942353322153835
35        114.962286572867         112.56896056388              112.156854      0.0119276230557605     0.00589194879449596     0.00142908976688456
36        114.955425108682        119.401722146141              112.156854      0.0117110742046214      0.0170452153222186    -0.00334004133959134
37        117.017991924022        112.571024909739              112.156854      0.0104792268580562     0.00598434236566623    5.63249505593301e-05
38        117.011130457531        119.403786490585              112.156854     0.00981155521951028      0.0166898284295185    -0.00465236231624047
39                     100                     100              105.656854        0.21213979941419       0.213687299361539      -0.975531473281691
40                     100                     100              102.828427       0.432013051842365       0.430763638575097   -0.000386772202478635
41                     100                     100                     100       0.212186946442719       0.213150426472402       0.976238012401239
42                     102                     102              105.656854      -0.344447200800395      -0.346942966059103      -0.278196980748041
43                     102                     102              102.828427     -0.0508604756595002     -0.0489661038541764    0.000613806001781027
44                     102                     102                     100      -0.344613370437554      -0.345983827490302       0.277061502856211
45                     104                     100              105.656854      0.0959453624879661       0.959728428146921      -0.808863308969029
46                     104                     100              102.828427     -0.0640055181165131       0.727051446185565   -0.000214244145784404
47                     104                     100                     100      0.0964245744116317       0.959185026686941       0.809254987466971
48                     106                     102              105.656854      -0.149609006497259      -0.514207822263471      -0.381482182424453
49                     106                     102              102.828427       0.142850318699918      0.0659396736019384    0.000177570572311077
50                     106                     102                     100      -0.150731638143512      -0.513409142202751       0.381124220974608
51                     108                     100              105.656854        0.11008564623112        1.06003519005669      -0.802054429468521
52                     108                     100              102.828427      -0.112170276403522       0.639876520581569    0.000355826583465156
53                     108                     100                     100       0.111158855166687        1.06008580636915        0.80139555428312
54                     110                     102              105.656854      -0.144481032074192       -0.58225984827218      -0.373447549275457
55                     110                     102              102.828427       0.149263279662671       0.135248562020006    -0.00102463227781004
56                     110                     102                     100      -0.146546028816645       -0.58300140988413       0.375357454528108
57                     112                     100              105.656854       0.132312041458159        1.10922796066729      -0.811117793138615
58                     112                     100              102.828427      -0.136138184013529       0.588623758211201     0.00119289403567523
59                     112                     100                     100       0.133380855833133        1.11050707013075       0.808887422218434
60                     114                     102              105.656854      -0.164675034849281      -0.621178812577065      -0.360644729322495
61                     114                     102              102.828427       0.169548665001411       0.176883955646541    -0.00231595403958142
62                     114                     102                     100       -0.16583938218162      -0.624046061313548       0.365080330980717
63                     116                     100              105.656854       0.166588168700993        1.14527317775409      -0.821813285632785
64                     116                     100              102.828427      -0.170771395086184       0.550937825526689     0.00162337690206701
65                     116                     100                     100        0.16658709628639        1.14726233662743       0.818765616116505
66                     118                     102              105.656854      -0.208621279465462      -0.653374311621288      -0.347212581864005
67                     118                     102              102.828427        0.21353921582411       0.210127447544014    -0.00231425092879679
68                     118                     102                     100       -0.20745339374317      -0.656237077213026       0.351644677739107
69                     120                     100              105.656854       0.222567881277982         1.1833098292549      -0.835685347515183
70                     120                     100              102.828427       -0.22795061797089       0.512117682912396     0.00119211712347374
71                     120                     100                     100       0.221499778642879        1.18458641179443       0.833456490555772
72                     122                     102              105.656854      -0.287376223183869      -0.688428878120258      -0.329918985467385
73                     122                     102              102.828427         0.2921744608026       0.244811360381937    -0.00102357698111487
74                     122                     102                     100      -0.285316357562882      -0.689166813576452        0.33182695344646
75                     124                     100              105.656854       0.325793697662581        1.23667866449178      -0.852252807328504
76                     124                     100              102.828427      -0.322345878558201       0.459491921682914    0.000356733836809356
77                     124                     100                     100       0.324723764016215        1.23672979235374       0.851592159663301
78                     126                     102              105.656854      -0.461154000156627      -0.727010044720874      -0.332050088505749
79                     126                     102              102.828427       0.396565777467963       0.281118635624109    0.000174466300732622
80                     126                     102                     100      -0.460036213031561      -0.726215525647569       0.331698423022744
81                     128                     100              105.656854       0.708085292312528        1.34037685878019      -0.754664375399438
82                     128                     100              102.828427      -0.280665629098167        0.39643073535544   -0.000211415021314964
83                     128                     100                     100       0.707607662820865        1.33983696022101       0.755050734807039
84                     130                     102              105.656854       -1.34063771133529      -0.708119597101516      -0.755636343800726
85                     130                     102              102.828427      -0.395901459741452       0.280380413269394    0.000608928671915325
86                     130                     102                     100       -1.34047163460271       -0.70716636806465       0.754510109239721
87                     100                     104              105.656854       0.958734338944031       0.099271918563343      -0.808063887738717
88                     100                     104              102.828427       0.727958473517026     -0.0664358502692867   -0.000981117853046135
89                     100                     104                     100       0.958417092552703      0.0981127366553598       0.809880644481559
90                     102                     106              105.656854      -0.512838768088946      -0.155220051655689      -0.383284101708873
91                     102                     106              102.828427      0.0646427548067542       0.146550565636608     0.00168785487631565
92                     102                     106                     100      -0.512334571864276      -0.153069690515915       0.380036605531097
93                     104                     104              105.656854       0.247138514577171       0.251365432815345      -0.388249907217305
94                     104                     104              102.828427      -0.180163823967591      -0.183097094233944   -0.000954833652641321
95                     104                     104                     100       0.247688598214715       0.249637976021364       0.390103962782319
96                     106                     106              105.656854      -0.233366210144766      -0.240860845824124      -0.504516324614166
97                     106                     106              102.828427       0.226158958250431       0.230719376261121     0.00133708006782843
98                     106                     106                     100      -0.235161540818268      -0.237876953471097       0.501535815056498
99                     108                     104              105.656854       0.174721479400311       0.337255808015692      -0.375469611055328
100                     108                     104              102.828427      -0.178828036726621      -0.267886749784925     0.00017167508628407
101                     108                     104                     100       0.177391094403579       0.336373799600865       0.375288640498572
102                     110                     106              105.656854      -0.187457919271467      -0.291811269339083      -0.489224999896384
103                     110                     106              102.828427       0.196422092655614       0.285270843955382     -0.0014879564771126
104                     110                     106                     100      -0.193481680881542      -0.291968861211562       0.491836036024716
105                     112                     104              105.656854        0.16978388890886       0.381903046474741      -0.391578206217036
106                     112                     104              102.828427      -0.176513702201078      -0.316440126540512     0.00255604740351371
107                     112                     104                     100       0.173266163841139       0.384642854674251         0.3865853961645
108                     114                     106              105.656854      -0.192713875520837      -0.318179435590891      -0.467475715517119
109                     114                     106              102.828427       0.200571927579192        0.31753849752753    -0.00543333011317898
110                     114                     106                     100      -0.196731602636362      -0.325032030873125       0.479090727002916
111                     116                     104              105.656854       0.198193886617982       0.410936655044454      -0.407159861944799
112                     116                     104              102.828427      -0.203399173181955      -0.348208633527942     0.00395857919612623
113                     116                     104                     100       0.198187167700919       0.416167324896702       0.399215138171162
114                     118                     106              105.656854      -0.236505314572111      -0.340390650547669      -0.451582154500256
115                     118                     106              102.828427       0.240246958629068       0.340435331176524    -0.00542451996221746
116                     118                     106                     100      -0.232467663891692      -0.347222058462773       0.463175487564031
117                     120                     104              105.656854       0.257633844378018       0.438565503569867      -0.422297496205722
118                     120                     104              102.828427      -0.262481966022975      -0.374941346600778     0.00255074855447897
119                     120                     104                     100       0.254153564965489       0.441292034695806       0.417315977856303
120                     122                     106              105.656854       -0.31279989309992      -0.361793975521356      -0.437456905867639
121                     122                     106              102.828427       0.315533025265445       0.357522455380186    -0.00148057746428514
122                     122                     106                     100      -0.306799039448346      -0.361934621709968       0.440054001912808
123                     124                     104              105.656854       0.366520779377096       0.462562104762514      -0.438792919014386
124                     124                     104              102.828427      -0.360845971673308      -0.397096802443587    0.000172751428225415
125                     124                     104                     100       0.363863602383389       0.461680827952771        0.43860839837278
126                     126                     106              105.656854      -0.465868659270768      -0.365173010543472      -0.441428838419535
127                     126                     106              102.828427        0.40018520342478       0.358964698007416     0.00132949608640156
128                     126                     106                     100      -0.464087213699063       -0.36220131232255       0.438468801659705
129                     128                     104              105.656854       0.728030842837148       0.460866344687071      -0.330398943042744
130                     128                     104              102.828427      -0.282433983156166      -0.395787384059504   -0.000947838434503176
131                     128                     104                     100        0.72748374805009       0.459148555067007        0.33223852262788
132                     130                     106              105.656854       -1.23754775762592      -0.326486905398872      -0.854115208534188
133                     130                     106              102.828427      -0.458191701876361       0.322295922648675     0.00167676154950069
134                     130                     106                     100       -1.23804874133299        -0.3243492363838       0.850890580698853
135                     100                     108              105.656854        1.06144194832816       0.115162485767256       -0.79927734196531
136                     100                     108              102.828427       0.639438929379209      -0.115554319282252     -0.0020742863030318
137                     100                     108                     100        1.06001643040126       0.113305992122015       0.803212428190334
138                     102                     110              105.656854      -0.585444033573843      -0.152190110655829      -0.379627228533629
139                     102                     110              102.828427       0.136073310370413       0.153795512008393     0.00356546282041451
140                     102                     110                     100      -0.582868283203327       -0.14912707703491       0.372374707747191
141                     104                     108              105.656854       0.335375405985627       0.184378307589608      -0.371086573952659
142                     104                     108              102.828427      -0.265950434986546      -0.184331730627642    -0.00284080439912883
143                     104                     108                     100       0.334837374054837       0.180479635718485       0.377136091690045
144                     106                     110              105.656854      -0.288855084456751      -0.203309214030731      -0.500204419476868
145                     106                     110              102.828427       0.282149936031489       0.203899707958218     0.00424495172212075
146                     106                     110                     100      -0.289742569254101      -0.197157437388401       0.488923737537217
147                     108                     108              105.656854       0.225181854503691       0.238667064407383      -0.362311723565095
148                     108                     108              102.828427      -0.232765802898247       -0.23959295697864     -0.0012213032084508
149                     108                     108                     100       0.230828016490175       0.234393658058024       0.366411426276859
150                     110                     110              105.656854      -0.212828087209778      -0.234739536922783      -0.477106233978945
151                     110                     110              102.828427       0.229619121769884       0.238659857833767    -0.00109361347010693
152                     110                     110                     100      -0.227921034744646      -0.232067932964586       0.476156933561892
153                     112                     108              105.656854       0.194741551799025       0.264826521010384      -0.390941279682947
154                     112                     108              102.828427      -0.207994245544696      -0.273162479636096     0.00496375460120378
155                     112                     108                     100       0.205720891689284       0.269110827007141        0.38022442448815
156                     114                     110              105.656854      -0.206153439989028      -0.242314271797683      -0.433924746298347
157                     114                     110              102.828427        0.22041082596726       0.257475664915903     -0.0109641851206607
158                     114                     110                     100      -0.217703191351052      -0.253112130561699       0.462826069883108
159                     116                     108              105.656854       0.220208462521923       0.279014066948861      -0.416110094173759
160                     116                     108              102.828427      -0.226086877065081      -0.293360871056766     0.00915020941379993
161                     116                     108                     100       0.220176689768997       0.290327100686753       0.394276702509058
162                     118                     110              105.656854       -0.25659930257546      -0.253326721799503      -0.416669877813628
163                     118                     110              102.828427       0.254941590052207       0.268774064539853      -0.010932583387714
164                     118                     110                     100      -0.244966132784981      -0.264066032186726        0.44547126740005
165                     120                     108              105.656854       0.280306164568108       0.298456169472902      -0.425687895548746
166                     120                     108              102.828427        -0.2802138545112      -0.307805501201562     0.00493967803224734
167                     120                     108                     100         0.2693344695802       0.302686929511019       0.415033950342125
168                     122                     110              105.656854      -0.323862272396935       -0.26827788241106      -0.420755180723146
169                     122                     110              102.828427       0.320053794713832       0.273199059867973    -0.00106207237603992
170                     122                     110                     100      -0.308856750016996       -0.26554123578637       0.419735236000906
171                     124                     108              105.656854       0.371708819442209       0.308294219768704      -0.434659098674303
172                     124                     108              102.828427      -0.364215083124687      -0.311491299895979    -0.00122219499662974
173                     124                     108                     100       0.366108322975361       0.304019502855027       0.438744859351199
174                     126                     110              105.656854      -0.446558499293959      -0.259204759894069      -0.428824263889891
175                     126                     110              102.828427       0.381499900968595       0.261630048492888     0.00423126820679539
176                     126                     110                     100      -0.445704196549724      -0.253066924907959       0.417607332558567
177                     128                     108              105.656854       0.691131044373172       0.288497386221572      -0.326382499121579
178                     128                     108              102.828427      -0.247819792605337      -0.291860262185136    -0.00282481284965061
179                     128                     108                     100       0.691670814639087       0.284618341506717       0.332390978475855
180                     130                     110              105.656854       -1.18401265838484      -0.224554165463821      -0.839601190964821
181                     130                     110              102.828427      -0.510194052283531       0.228553700925795     0.00354496725289656
182                     130                     110                     100       -1.18657552408025      -0.221505975355885       0.832396983401161
183                     100                     112              105.656854        1.11459400242764       0.136622838457872       -0.80551143369034
184                     100                     112              102.828427       0.586150328629707      -0.138838472535125    -0.00338812242013429
185                     100                     112                     100        1.11141452603764       0.134993391718318       0.812103478339777
186                     102                     114              105.656854      -0.629857365292031      -0.168554395821482      -0.371559039441564
187                     102                     114              102.828427        0.18007231325356       0.171714870603208     0.00528236667043428
188                     102                     114                     100      -0.624889695383933      -0.167011582506636       0.360409919666161
189                     104                     112              105.656854       0.387884134068231       0.180051603301018      -0.377781376288977
190                     104                     112              102.828427      -0.317394301523596      -0.181699647261588    -0.00568395790699148
191                     104                     112                     100       0.384181530271751        0.17589178857525       0.391134598190515
192                     106                     114              105.656854      -0.324937391818787       -0.20169593484701      -0.494701817594686
193                     106                     114              102.828427       0.317270721309068       0.204564338174952     0.00735596909623095
194                     106                     114                     100      -0.323712659998203      -0.198554556933935       0.473086129271645
195                     108                     112              105.656854       0.257544146151086       0.215251037122195      -0.366881756269933
196                     108                     112              102.828427      -0.267826714749779       -0.21613894309716     -0.0042841677757309
197                     108                     112                     100       0.265977659044554       0.209292588288522       0.384158317723822
198                     110                     114              105.656854      -0.223656103635765      -0.220034303950295      -0.465005411747272
199                     110                     114              102.828427       0.249297256027897        0.22596382949297    -0.00024622514890083
200                     110                     114                     100      -0.249202154429426      -0.219991429560795       0.458745168652218
201                     112                     112              105.656854       0.201671990525844       0.226885400596713      -0.415853905891763