ITEM: TIMESTEP
0
ITEM: NUMBER OF ATOMS
422
ITEM: BOX BOUNDS ff ff ff
0.0000000000000000e+00 2.3200000000000000e+02
0.0000000000000000e+00 2.3200000000000000e+02
0.0000000000000000e+00 2.3200000000000000e+02
ITEM: ATOMS id xu yu zu fx fy fz
1        113.114564085553        115.952152707392        108.625485891715        8252.86979155356        8133.14175077809       -992.595506420849
2         118.79979332903        115.961534730593        108.629162488959        2345.35078323249        3587.09613741586       -414.391514238825
3         117.40532833859        115.990778457438        108.659837344673        -1224.2146277727        1202.01384340001        97.4526611368802
4        114.607140347897        116.021020251884        108.692922308948       -3261.81372783962       -1049.85967111071        241.198608097113
5        116.718722016899        114.767371699293        108.674500849129        563.964009608792       -1916.00312414003        234.406672678805
6        115.305149114587        114.778614732431        108.687176123719       -1212.30142106933        -1272.4046045687        113.821234267196
7        115.293139976325        117.243820316686        108.677652111298        716.295454417686        664.677006642368        269.108276991364
8        116.700699191257        117.226563596418        108.658963149835          436.7706458287       -354.113842569414       -78.4407486117661
9        114.522153521013        113.552842841431        108.661250600256       -5663.55615968624        17081.9009004337         935.03678291928
10        117.414857643893        113.505705565048        108.611158161162        44145.4575619875        117249.427433716       -13110.1945826201
11        114.481727493905        118.390209595025        108.625717943132        415.541752446997       -5317.45352647969       -989.012211846499
12        117.454355154667         118.42299585819        108.655549044011        10966.4681563407       -22877.8511786305        169.053997867983
13        113.079899118179        113.515032445841        108.609441857943        24853.9945031241        46508.7657088746       -3243.60334898165
14         113.11197210216        118.394078056321        108.646377294047        3669.08813706415        -14761.923545001       -419.401617146957
15        118.831493403168        113.548717470572           108.637379177       -15902.5849203332        22464.5284829421       -2119.18146908497
16         118.88000994928        118.444206648364        108.690758177783       -46121.9247743512       -86304.6026990403         9070.0257832114
17        112.399927351379         117.16745145688         108.62998551324       -54.2386034626839        652.680808476953       -30.2019450853689
18        112.465730028031        114.807780784355        108.693354969292       -4930.06573166027        -9258.2728852607        1240.81677913938
19        119.541082265421        114.772888181001        108.651315068729         2257.4166141154        -908.48111132212        60.1884553479095
20        119.586890690314        117.244169958246        108.699556715286       -7082.55890726543       -3252.48914313873        864.678122077296
21        120.984996644004        114.854296707202         108.68671562138       -13439.7221660841        1334.20766929713        1065.39944686454
22        120.922592388053        117.128089255378        108.626655025802        4452.23227019372       -3899.63041196723       -972.049719159101
23          111.0315510255        114.825384181832        108.667779352339        7523.98504560976        10318.9925187598        -109.10423510542
24        110.986927969368        117.116957928496        108.625499956223           6014.79790568       -1646.20971502675       -1345.64341762307
25        121.542819821245        115.948090438624        108.612947360506        10485.6676636751        9835.50831927123        -1080.7832137473
26        110.406417866557         116.00047727075        108.676581292085       -8625.46074363189       -5709.11635401295        547.238883708025
27        121.625344166001        118.202070261103        108.673002120177        5307.66196808933        8107.23585354369        349.637452593139
28        121.647934022056        113.832453305051        108.691185735356        10507.4014829272       -16196.3132192843        71.1157708453985
29        110.400269550569        118.215080287138        108.697308799842       -6689.03996987566         12515.761430353        818.264133976594
30        110.373466512193        113.796070438662        108.666099521933       -10002.5686951042       -15643.6219187686       -25.5767857244555
31        112.600538173189        112.616126151039        108.657525350946       -27455.4967486036        -51483.621975752        2753.64094518544
32         112.61352962081         119.37090944142        108.677280120211       -10274.0444192363        20132.2451016997        636.915187972476
33        119.429398738891        112.671348940571        108.705939205939        18935.9019259771       -27789.0964296668        2171.30965127609
34        119.324194573278        119.307936626524        108.607498366135        47897.9066648347        93138.0505009112       -8977.72736209812
35         114.92533343961        112.532007430623        108.619900866743        8178.62500970092        -20702.626896757       -838.453618315849
36        114.979612614495        119.425909651954        108.681041505813        5273.80332058288         10970.595360044        585.861782721477
37        117.065388709315        112.618421695033        108.704250785293       -47972.4035485575       -121788.635182559         12777.510631083
38        116.998637272938        119.391293305992        108.644360815407       -13289.2055024569        28235.4986084979       -326.319964150528
39                     100                     100              105.656854                       0                       0                       0
40                     100                     100              102.828427                       0                       0                       0
41                     100                     100                     100                       0                       0                       0
42                     102                     102              105.656854                       0                       0                       0
43                     102                     102              102.828427                       0                       0                       0
44                     102                     102                     100                       0                       0                       0
45                     104                     100              105.656854                       0                       0                       0
46                     104                     100              102.828427                       0                       0                       0
47                     104                     100                     100                       0                       0                       0
48                     106                     102              105.656854                       0                       0                       0
49                     106                     102              102.828427                       0                       0                       0
50                     106                     102                     100                       0                       0                       0
51                     108                     100              105.656854                       0                       0                       0
52                     108                     100              102.828427                       0                       0                       0
53                     108                     100                     100                       0                       0                       0
54                     110                     102              105.656854                       0                       0                       0
55                     110                     102              102.828427                       0                       0                       0
56                     110                     102                     100                       0                       0                       0
57                     112                     100              105.656854                       0                       0                       0
58                     112                     100              102.828427                       0                       0                       0
59                     112                     100                     100                       0                       0                       0
60                     114                     102              105.656854                       0                       0                       0
61                     114                     102              102.828427                       0                       0                       0
62                     114                     102                     100                       0                       0                       0
63                     116                     100              105.656854                       0                       0                       0
64                     116                     100              102.828427                       0                       0                       0
65                     116                     100                     100                       0                       0                       0
66                     118                     102              105.656854                       0                       0                       0
67                     118                     102              102.828427                       0                       0                       0
68                     118                     102                     100                       0                       0                       0
69                     120                     100              105.656854                       0                       0                       0
70                     120                     100              102.828427                       0                       0                       0
71                     120                     100                     100                       0                       0                       0
72                     122                     102              105.656854                       0                       0                       0
73                     122                     102              102.828427                       0                       0                       0
74                     122                     102                     100                       0                       0                       0
75                     124                     100              105.656854                       0                       0                       0
76                     124                     100              102.828427                       0                       0                       0
77                     124                     100                     100                       0                       0                       0
78                     126                     102              105.656854                       0                       0                       0
79                     126                     102              102.828427                       0                       0                       0
80                     126                     102                     100                       0                       0                       0
81                     128                     100              105.656854                       0                       0                       0
82                     128                     100              102.828427                       0                       0                       0
83                     128                     100                     100                       0                       0                       0
84                     130                     102              105.656854                       0                       0                       0
85                     130                     102              102.828427                       0                       0                       0
86                     130                     102                     100                       0                       0                       0
87                     100                     104              105.656854                       0                       0                       0
88                     100                     104              102.828427                       0                       0                       0
89                     100                     104                     100                       0                       0                       0
90                     102                     106              105.656854                       0                       0                       0
91                     102                     106              102.828427                       0                       0                       0
92                     102                     106                     100                       0                       0                       0
93                     104                     104              105.656854                       0                       0                       0
94                     104                     104              102.828427                       0                       0                       0
95                     104                     104                     100                       0                       0                       0
96                     106                     106              105.656854                       0                       0                       0
97                     106                     106              102.828427                       0                       0                       0
98                     106                     106                     100                       0                       0                       0
99                     108                     104              105.656854                       0                       0                       0
100                     108                     104              102.828427                       0                       0                       0
101                     108                     104                     100                       0                       0                       0
102                     110                     106              105.656854                       0                       0                       0
103                     110                     106              102.828427                       0                       0                       0
104                     110                     106                     100                       0                       0                       0
105                     112                     104              105.656854                       0                       0                       0
106                     112                     104              102.828427                       0                       0                       0
107                     112                     104                     100                       0                       0                       0
108                     114                     106              105.656854                       0                       0                       0
109                     114                     106              102.828427                       0                       0                       0
110                     114                     106                     100                       0                       0                       0
111                     116                     104              105.656854                       0                       0                       0
112                     116                     104              102.828427                       0                       0                       0
113                     116                     104                     100                       0                       0                       0
114                     118                     106              105.656854                       0                       0                       0
115                     118                     106              102.828427                       0                       0                       0
116                     118                     106                     100                       0                       0                       0
117                     120                     104              105.656854                       0                       0                       0
118                     120                     104              102.828427                       0                       0                       0
119                     120                     104                     100                       0                       0                       0
120                     122                     106              105.656854                       0                       0                       0
121                     122                     106              102.828427                       0                       0                       0
122                     122                     106                     100                       0                       0                       0
123                     124                     104              105.656854                       0                       0                       0
124                     124                     104              102.828427                       0                       0                       0
125                     124                     104                     100                       0                       0                       0
126                     126                     106              105.656854                       0                       0                       0
127                     126                     106              102.828427                       0                       0                       0
128                     126                     106                     100                       0                       0                       0
129                     128                     104              105.656854                       0                       0                       0
130                     128                     104              102.828427                       0                       0                       0
131                     128                     104                     100                       0                       0                       0
132                     130                     106              105.656854                       0                       0                       0
133                     130                     106              102.828427                       0                       0                       0
134                     130                     106                     100                       0                       0                       0
135                     100                     108              105.656854                       0                       0                       0
136                     100                     108              102.828427                       0                       0                       0
137                     100                     108                     100                       0                       0                       0
138                     102                     110              105.656854                       0                       0                       0
139                     102                     110              102.828427                       0                       0                       0
140                     102                     110                     100                       0                       0                       0
141                     104                     108              105.656854                       0                       0                       0
142                     104                     108              102.828427                       0                       0                       0
143                     104                     108                     100                       0                       0                       0
144                     106                     110              105.656854                       0                       0                       0
145                     106                     110              102.828427                       0                       0                       0
146                     106                     110                     100                       0                       0                       0
147                     108                     108              105.656854                       0                       0                       0
148                     108                     108              102.828427                       0                       0                       0
149                     108                     108                     100                       0                       0                       0
150                     110                     110              105.656854                       0                       0                       0
151                     110                     110              102.828427                       0                       0                       0
152                     110                     110                     100                       0                       0                       0
153                     112                     108              105.656854                       0                       0                       0
154                     112                     108              102.828427                       0                       0                       0
155                     112                     108                     100                       0                       0                       0
156                     114                     110              105.656854                       0                       0                       0
157                     114                     110              102.828427                       0                       0                       0
158                     114                     110                     100                       0                       0                       0
159                     116                     108              105.656854                       0                       0                       0
160                     116                     108              102.828427                       0                       0                       0
161                     116                     108                     100                       0                       0                       0
162                     118                     110              105.656854                       0                       0                       0
163                     118                     110              102.828427                       0                       0                       0
164                     118                     110                     100                       0                       0                       0
165                     120                     108              105.656854                       0                       0                       0
166                     120                     108              102.828427                       0                       0                       0
167                     120                     108                     100                       0                       0                       0
168                     122                     110              105.656854                       0                       0                       0
169                     122                     110              102.828427                       0                       0                       0
170                     122                     110                     100                       0                       0                       0
171                     124                     108              105.656854                       0                       0                       0
172                     124                     108              102.828427                       0                       0                       0
173                     124                     108                     100                       0                       0                       0
174                     126                     110              105.656854                       0                       0                       0
175                     126                     110              102.828427                       0                       0                       0
176                     126                     110                     100                       0                       0                       0
177                     128                     108              105.656854                       0                       0                       0
178                     128                     108              102.828427                       0                       0                       0
179                     128                     108                     100                       0                       0                       0
180                     130                     110              105.656854                       0                       0                       0
181                     130                     110              102.828427                       0                       0                       0
182                     130                     110                     100                       0                       0                       0
183                     100                     112              105.656854                       0                       0                       0
184                     100                     112              102.828427                       0                       0                       0
185                     100                     112                     100                       0                       0                       0
186                     102                     114              105.656854                       0                       0                       0
187                     102                     114              102.828427                       0                       0                       0
188                     102                     114                     100                       0                       0                       0
189                     104                     112              105.656854                       0                       0                       0
190                     104                     112              102.828427                       0                       0                       0
191                     104                     112                     100                       0                       0                       0
192                     106                     114              105.656854                       0                       0                       0
193                     106                     114              102.828427                       0                       0                       0
194                     106                     114                     100                       0                       0                       0
195                     108                     112              105.656854                       0                       0                       0
196                     108                     112              102.828427                       0                       0                       0
197                     108                     112                     100                       0                       0                       0
198                     110                     114              105.656854                       0                       0                       0
199                     110                     114              102.828427                       0                       0                       0
200                     110                     114                     100                       0                       0                       0
201                     112                     112              105.656854                       0                       0                       0