ITEM: TIMESTEP
0
ITEM: NUMBER OF ATOMS
422
ITEM: BOX BOUNDS ff ff ff
0.0000000000000000e+00 2.3200000000000000e+02
0.0000000000000000e+00 2.3200000000000000e+02
0.0000000000000000e+00 2.3200000000000000e+02
ITEM: ATOMS id xu yu zu fx fy fz
1        113.114797412291        115.952386034129        108.625719218452        6207.27030690566        3243.41861459382       -397.696566623468
2        118.874587455086        116.036328856649        108.703956615015       -5187.16232493268       -8252.58147012378        994.839941179563
3        117.432549980325        116.018000099173        108.687058986408       -891.921789181687       -3243.17394485057        55.1954570440305
4        114.618630644112        116.032510548099        108.704412605163       -6368.64323402251       -9782.33294749798        1292.17190783243
5        116.653377929134        114.702027611529        108.609156761365        652.673839576398        3835.36192800279        -666.10351940417
6        115.237808742559        114.711274360404        108.619835751692        524.313642522516        4458.26278840701       -442.407568670098
7        115.243163276717        117.193843617077        108.627675411689        6620.15788382853        9086.12899252564       -1229.55647398166
8        116.729460402006        117.255324807167        108.687724360584       -4449.51513448892       -2469.04517283825        340.014409365001
9        114.516049463378        113.546738783795         108.65514654262       -15453.6732301626        23183.2714069988       -678.177719858809
10         117.50786293789        113.598710859045        108.704163455159       -2203.90157454855       -113.078784680925        1151.13336905611
11        114.537245519368        118.445727620488        108.681235968595       -15170.4714924285       -43293.9028069104        2019.22537332516
12        117.455610617913        118.424251321437        108.656804507258        3059.04230139201       -13167.4706544972       -784.537146905593
13        113.083864781292        113.518998108954        108.613407521056        15895.1288335386        28001.3508588009       -1204.43501218928
14        113.146618230744        118.428724184905        108.681023422631        8575.89913976123       -21980.0874406991        707.664096752247
15         118.87895884996        113.596182917364        108.684844623792       -9672.72345678156        13622.5043070883       -41.0005695163805
16        118.818866078813        118.383062777897        108.629614307317       -2911.21083617973       -9659.96599915351       -629.390611657651
17        112.388246282115        117.155770387616        108.618304443976        5300.38839054347        2947.78064508742       -569.764905374987
18         112.43456508396        114.776615840284        108.662190025221       -2479.89950109137       -3846.95798899592        571.619532890373
19        119.541686698005        114.773492613585        108.651919501312        1028.71032627059        4945.17791746934       -442.250407083729
20        119.527783313141        117.185062581073        108.640449338113        4183.82944329975        6764.33988707835       -615.906657212724
21        120.941864925861        114.811164989059        108.643583903236       -5100.35668877112        8068.43744760457        462.977588652225
22        120.925841988363        117.131338855688        108.629904626112        859.111451797704       -76.3671362987318        -413.22860543855
23        111.009849997266        114.803683153598        108.646078324105        8957.12694069506        11643.3124857985       -11.5999545983846
24        111.029126028404        117.159155987533        108.667698015259        3104.43199044898       -14469.3715908686        1188.33037137287
25        121.558367907871         115.96363852525        108.628495447132           6627.09974557        1284.82430123641       -95.7425914986213
26        110.345480002065        115.939539406258        108.615643427593       -5111.54667641741        3303.99411544295        -281.19124058744
27        121.657750325539        118.234476420641        108.705408279714        3531.56574988468        5321.72950814268        364.166196460556
28        121.570293485077        113.754812768072        108.613545198377        8738.22982800949       -14684.7033229855       -417.552639761597
29        110.331626995299        118.146437731867        108.628666244571       -12210.5889658658        17282.1899439843        -682.98381369889
30        110.359755247644        113.782359174113        108.652388257383       -11218.0116746729        -17623.179316932         108.90576257985
31        112.579192689636        112.594780667487        108.636179867393        -18405.346333034       -33705.6563223948         830.32692801446
32        112.596331633708        119.353711454318        108.660082133109       -14786.9073357299        24854.7016657753       -562.598487948366
33        119.415750696035        112.657700897715        108.692291163083        13574.5835417961       -23733.4943897224        188.337626424875
34        119.368133745163        119.351875798409         108.65143753802         9149.6049522442        16137.3334453239        363.400768168757
35        114.993377508931        112.600051499944        108.687944936064        15772.0995690457       -31282.5483207809        1083.91005910921
36        114.943787266016        119.390084303475        108.645216157334        20617.3567020448        47885.5190857965       -1826.36112057982
37        116.968373894313        112.521406880031        108.607235970292       -2860.42103639924       -5714.28049656661       -513.921391536693
38        117.048651030207         119.44130706326        108.694374572676       -8496.32329446722        21228.5587616396        784.187615899204
39                     100                     100              105.656854                       0                       0                       0
40                     100                     100              102.828427                       0                       0                       0
41                     100                     100                     100                       0                       0                       0
42                     102                     102              105.656854                       0                       0                       0
43                     102                     102              102.828427                       0                       0                       0
44                     102                     102                     100                       0                       0                       0
45                     104                     100              105.656854                       0                       0                       0
46                     104                     100              102.828427                       0                       0                       0
47                     104                     100                     100                       0                       0                       0
48                     106                     102              105.656854                       0                       0                       0
49                     106                     102              102.828427                       0                       0                       0
50                     106                     102                     100                       0                       0                       0
51                     108                     100              105.656854                       0                       0                       0
52                     108                     100              102.828427                       0                       0                       0
53                     108                     100                     100                       0                       0                       0
54                     110                     102              105.656854                       0                       0                       0
55                     110                     102              102.828427                       0                       0                       0
56                     110                     102                     100                       0                       0                       0
57                     112                     100              105.656854                       0                       0                       0
58                     112                     100              102.828427                       0                       0                       0
59                     112                     100                     100                       0                       0                       0
60                     114                     102              105.656854                       0                       0                       0
61                     114                     102              102.828427                       0                       0                       0
62                     114                     102                     100                       0                       0                       0
63                     116                     100              105.656854                       0                       0                       0
64                     116                     100              102.828427                       0                       0                       0
65                     116                     100                     100                       0                       0                       0
66                     118                     102              105.656854                       0                       0                       0
67                     118                     102              102.828427                       0                       0                       0
68                     118                     102                     100                       0                       0                       0
69                     120                     100              105.656854                       0                       0                       0
70                     120                     100              102.828427                       0                       0                       0
71                     120                     100                     100                       0                       0                       0
72                     122                     102              105.656854                       0                       0                       0
73                     122                     102              102.828427                       0                       0                       0
74                     122                     102                     100                       0                       0                       0
75                     124                     100              105.656854                       0                       0                       0
76                     124                     100              102.828427                       0                       0                       0
77                     124                     100                     100                       0                       0                       0
78                     126                     102              105.656854                       0                       0                       0
79                     126                     102              102.828427                       0                       0                       0
80                     126                     102                     100                       0                       0                       0
81                     128                     100              105.656854                       0                       0                       0
82                     128                     100              102.828427                       0                       0                       0
83                     128                     100                     100                       0                       0                       0
84                     130                     102              105.656854                       0                       0                       0
85                     130                     102              102.828427                       0                       0                       0
86                     130                     102                     100                       0                       0                       0
87                     100                     104              105.656854                       0                       0                       0
88                     100                     104              102.828427                       0                       0                       0
89                     100                     104                     100                       0                       0                       0
90                     102                     106              105.656854                       0                       0                       0
91                     102                     106              102.828427                       0                       0                       0
92                     102                     106                     100                       0                       0                       0
93                     104                     104              105.656854                       0                       0                       0
94                     104                     104              102.828427                       0                       0                       0
95                     104                     104                     100                       0                       0                       0
96                     106                     106              105.656854                       0                       0                       0
97                     106                     106              102.828427                       0                       0                       0
98                     106                     106                     100                       0                       0                       0
99                     108                     104              105.656854                       0                       0                       0
100                     108                     104              102.828427                       0                       0                       0
101                     108                     104                     100                       0                       0                       0
102                     110                     106              105.656854                       0                       0                       0
103                     110                     106              102.828427                       0                       0                       0
104                     110                     106                     100                       0                       0                       0
105                     112                     104              105.656854                       0                       0                       0
106                     112                     104              102.828427                       0                       0                       0
107                     112                     104                     100                       0                       0                       0
108                     114                     106              105.656854                       0                       0                       0
109                     114                     106              102.828427                       0                       0                       0
110                     114                     106                     100                       0                       0                       0
111                     116                     104              105.656854                       0                       0                       0
112                     116                     104              102.828427                       0                       0                       0
113                     116                     104                     100                       0                       0                       0
114                     118                     106              105.656854                       0                       0                       0
115                     118                     106              102.828427                       0                       0                       0
116                     118                     106                     100                       0                       0                       0
117                     120                     104              105.656854                       0                       0                       0
118                     120                     104              102.828427                       0                       0                       0
119                     120                     104                     100                       0                       0                       0
120                     122                     106              105.656854                       0                       0                       0
121                     122                     106              102.828427                       0                       0                       0
122                     122                     106                     100                       0                       0                       0
123                     124                     104              105.656854                       0                       0                       0
124                     124                     104              102.828427                       0                       0                       0
125                     124                     104                     100                       0                       0                       0
126                     126                     106              105.656854                       0                       0                       0
127                     126                     106              102.828427                       0                       0                       0
128                     126                     106                     100                       0                       0                       0
129                     128                     104              105.656854                       0                       0                       0
130                     128                     104              102.828427                       0                       0                       0
131                     128                     104                     100                       0                       0                       0
132                     130                     106              105.656854                       0                       0                       0
133                     130                     106              102.828427                       0                       0                       0
134                     130                     106                     100                       0                       0                       0
135                     100                     108              105.656854                       0                       0                       0
136                     100                     108              102.828427                       0                       0                       0
137                     100                     108                     100                       0                       0                       0
138                     102                     110              105.656854                       0                       0                       0
139                     102                     110              102.828427                       0                       0                       0
140                     102                     110                     100                       0                       0                       0
141                     104                     108              105.656854                       0                       0                       0
142                     104                     108              102.828427                       0                       0                       0
143                     104                     108                     100                       0                       0                       0
144                     106                     110              105.656854                       0                       0                       0
145                     106                     110              102.828427                       0                       0                       0
146                     106                     110                     100                       0                       0                       0
147                     108                     108              105.656854                       0                       0                       0
148                     108                     108              102.828427                       0                       0                       0
149                     108                     108                     100                       0                       0                       0
150                     110                     110              105.656854                       0                       0                       0
151                     110                     110              102.828427                       0                       0                       0
152                     110                     110                     100                       0                       0                       0
153                     112                     108              105.656854                       0                       0                       0
154                     112                     108              102.828427                       0                       0                       0
155                     112                     108                     100                       0                       0                       0
156                     114                     110              105.656854                       0                       0                       0
157                     114                     110              102.828427                       0                       0                       0
158                     114                     110                     100                       0                       0                       0
159                     116                     108              105.656854                       0                       0                       0
160                     116                     108              102.828427                       0                       0                       0
161                     116                     108                     100                       0                       0                       0
162                     118                     110              105.656854                       0                       0                       0
163                     118                     110              102.828427                       0                       0                       0
164                     118                     110                     100                       0                       0                       0
165                     120                     108              105.656854                       0                       0                       0
166                     120                     108              102.828427                       0                       0                       0
167                     120                     108                     100                       0                       0                       0
168                     122                     110              105.656854                       0                       0                       0
169                     122                     110              102.828427                       0                       0                       0
170                     122                     110                     100                       0                       0                       0
171                     124                     108              105.656854                       0                       0                       0
172                     124                     108              102.828427                       0                       0                       0
173                     124                     108                     100                       0                       0                       0
174                     126                     110              105.656854                       0                       0                       0
175                     126                     110              102.828427                       0                       0                       0
176                     126                     110                     100                       0                       0                       0
177                     128                     108              105.656854                       0                       0                       0
178                     128                     108              102.828427                       0                       0                       0
179                     128                     108                     100                       0                       0                       0
180                     130                     110              105.656854                       0                       0                       0
181                     130                     110              102.828427                       0                       0                       0
182                     130                     110                     100                       0                       0                       0
183                     100                     112              105.656854                       0                       0                       0
184                     100                     112              102.828427                       0                       0                       0
185                     100                     112                     100                       0                       0                       0
186                     102                     114              105.656854                       0                       0                       0
187                     102                     114              102.828427                       0                       0                       0
188                     102                     114                     100                       0                       0                       0
189                     104                     112              105.656854                       0                       0                       0
190                     104                     112              102.828427                       0                       0                       0
191                     104                     112                     100                       0                       0                       0
192                     106                     114              105.656854                       0                       0                       0
193                     106                     114              102.828427                       0                       0                       0
194                     106                     114                     100                       0                       0                       0
195                     108                     112              105.656854                       0                       0                       0
196                     108                     112              102.828427                       0                       0                       0
197                     108                     112                     100                       0                       0                       0
198                     110                     114              105.656854                       0                       0                       0
199                     110                     114              102.828427                       0                       0                       0
200                     110                     114                     100                       0                       0                       0
201                     112                     112              105.656854                       0                       0                       0