ITEM: TIMESTEP
0
ITEM: NUMBER OF ATOMS
422
ITEM: BOX BOUNDS ff ff ff
0.0000000000000000e+00 2.3200000000000000e+02
0.0000000000000000e+00 2.3200000000000000e+02
0.0000000000000000e+00 2.3200000000000000e+02
ITEM: ATOMS id xu yu zu fx fy fz
1        113.114649431328        115.952238053167         108.62557123749    -0.00479834520479977    0.000383849584866452     0.00973159198077243
2        118.778156014753        115.939897416317        108.607525174682     0.00261202466899652     0.00132844876403347      0.0147370835510249
3        117.441648291507        116.027098410355         108.69615729759   -0.000227661420237238     0.00193769059016986     0.00951389972570878
4        114.566714106307        115.980594010294        108.652496067358     0.00661483845634006      0.0037126042792866      0.0146069570052764
5        116.722569832948        114.771219515342        108.678348665179     -0.0159532577074779      0.0158829200123005      0.0359785483770702
6        115.264878115368        114.738343733212        108.646905124501      0.0269523187969417      0.0175291383027354      0.0450763641414469
7         115.31515199121         117.26583233157        108.699664126183      0.0219112720229615    -0.00646789651764421      0.0308117424284492
8        116.667053250447        117.192917655608        108.625317209025      -0.017748813964296    -0.00938227774836827      0.0403408329770527
9        114.519311211474        113.550000531892        108.658408290716      0.0303258461840684     -0.0366026436418747       0.156341378825392
10        117.496723248975         113.58757117013        108.693023766244      -0.044529524923751     -0.0317158963940501       0.143051864696949
11        114.463904791703        118.372386892823         108.60789524093      0.0349807148536212      0.0192836978048755       0.205880829681369
12        117.498209183086         118.46684988661        108.699403072431     -0.0429092159682148      0.0153592287297071       0.136792085662412
13        113.162763664728         113.59789699239        108.692306404492      -0.025487236132015     -0.0265398582450704       0.102392483873758
14        113.145607295388        118.427713249549        108.680012487275     -0.0264201217884566      0.0127813502318527       0.104832862614953
15        118.834177425424        113.551401492828        108.640063199256      0.0155179806532782      -0.032723999882257       0.123521145001728
16        118.853928101616        118.418124800701         108.66467633012      0.0131111940113918      0.0138201328573623       0.113433802733598
17        112.444833141945        117.212357247446        108.674891303806    -0.00816334777675114     0.00237587107135493      0.0198934100369946
18        112.425855193781        114.767905950105        108.653480135042    -0.00900389693031627     0.00758261789785006      0.0231165092309027
19        119.554625809534        114.786431725114        108.664858612842      0.0185510830337833      0.0070215772696302      0.0206816219889385
20        119.529590683915        117.186869951846        108.642256708887      0.0199535946501042    0.000577248790112301      0.0239137410715149
21        120.944477242616        114.813777305814        108.646196219992       0.132259982385605        0.12331910996848      0.0377826983782786
22        120.909198655094        117.114695522419        108.613261292843       0.130696530011258     -0.0227790033750161      0.0395559931223928
23         111.05103996328        114.844873119611        108.687268290119     -0.0147009433591035       0.125508133226187      0.0512649745393347
24        111.001039086099        117.131069045227        108.639611072953     -0.0127293750620804     -0.0196383354343823      0.0583219876498329
25        121.576472050762        115.981742668141        108.646599590023     -0.0580697846211356     -0.0259068710195805     0.00372790963674983
26        110.405709041053        115.999768445246        108.675872466581    -0.00884019045763633     -0.0282512965646292     -0.0119341204281579
27        121.645567012932        118.222293108034        108.693224967108      -0.168011619112063     -0.0408189656997345       0.171174701474364
28        121.619337282282        113.803856565277        108.662588995582       -0.18294798103661     -0.0767579878139622       0.171787059366776
29        110.362615533601         118.17742627017        108.659654782873      0.0297379657213107     -0.0556479098399777       0.154133040965464
30        110.332691442653        113.755295369122        108.625324452392      0.0293181693894921     -0.0859406771148853         0.1566713127424
31        112.560980622646        112.576568600496        108.617967800403      -0.016632894049009      0.0263010377974523      0.0144731071156406
32        112.558549199288        119.315929019897        108.622299698688     -0.0171168563070903      0.0145419661513856      0.0079914813561681
33         119.41229047313         112.65424067481        108.688830940178       0.059987148825293      0.0256037174722114     0.00567785509774984
34        119.408411327735        119.392153380982        108.691715120593      0.0584892193994636      0.0152858033463602     0.00182178523228217
35        114.958934230595        112.565608221608        108.653501657728     0.00446975462812689      0.0144620390610451   -0.000654305755671861
36        114.959040514065        119.405337551524        108.660469405383     0.00424120808621181      0.0134440487908292    -0.00447158356197249
37        117.035519696856        112.588552682573        108.674381772834      0.0215154119945302      0.0145780316209406    -0.00209399797042131
38        117.028215385152        119.420871418206        108.673938927621      0.0211630852395675      0.0132098125730926    -0.00569218676490903
39                     100                     100              105.656854       0.212166737023477       0.214028940249793      -0.975675855842782
40                     100                     100              102.828427       0.432018560817775       0.430386673538065   -0.000388956856493463
41                     100                     100                     100       0.212133861720991       0.213469499849025        0.97633223639876
42                     102                     102              105.656854      -0.344493437704979      -0.347682619598925      -0.277988118364263
43                     102                     102              102.828427     -0.0509078667526356     -0.0482363600336479    0.000714365947319125
44                     102                     102                     100      -0.344465530532778      -0.346524156900498       0.276824849960968
45                     104                     100              105.656854      0.0957263090263158       0.960160389479234      -0.808930948113297
46                     104                     100              102.828427      -0.063706507440629       0.726629263993492      -0.000293623224374
47                     104                     100                     100      0.0960994634948197       0.959489088853459       0.809391360188331
48                     106                     102              105.656854      -0.148983463204897      -0.515063812147939      -0.381474358482343
49                     106                     102              102.828427       0.142095565211701      0.0666430391978347    0.000411659423356393
50                     106                     102                     100      -0.150019508820541      -0.513814450797795       0.380873675790666
51                     108                     100              105.656854       0.109406008856756        1.06010728062508      -0.801904902787455
52                     108                     100              102.828427      -0.111411331229227       0.639863659357165    0.000243800871395566
53                     108                     100                     100       0.110488270206482        1.06003044765845       0.801442336297575
54                     110                     102              105.656854      -0.142865168347437      -0.581819797227948      -0.373827046072584
55                     110                     102              102.828427       0.147684815096595       0.134752293090057   -0.000958074738778216
56                     110                     102                     100      -0.145340210502099      -0.582556154093998       0.375484500814676
57                     112                     100              105.656854       0.131526813811108         1.1082852123549      -0.810686974782479
58                     112                     100              102.828427      -0.135328518886852       0.589570717478613      0.0011803570787288
59                     112                     100                     100       0.132728380259869        1.10976071005051        0.80867851976562
60                     114                     102              105.656854      -0.163631941282182      -0.618468198942035      -0.361333370406875
61                     114                     102              102.828427       0.168587886125758        0.17456474391657    -0.00268761174035024
62                     114                     102                     100      -0.165154246998579      -0.622499307120554        0.36577831285432
63                     116                     100              105.656854       0.166548179527955        1.14367280312682      -0.821245631937074
64                     116                     100              102.828427       -0.17073252575302        0.55247797539098     0.00169901789213336
65                     116                     100                     100       0.166554450810124        1.14611304258848       0.818393315046198
66                     118                     102              105.656854      -0.209544901140032      -0.650615292826573      -0.347906146687251
67                     118                     102              102.828427        0.21438705527119       0.207760611640995    -0.00269641329987927
68                     118                     102                     100      -0.208048223841269      -0.654654666777202       0.352361434928377
69                     120                     100              105.656854       0.223288511765358        1.18230016755236      -0.835249845542784
70                     120                     100              102.828427      -0.228699210734177       0.513125865027337     0.00119152404178545
71                     120                     100                     100       0.222102054959743        1.18379384244957        0.83322690324964
72                     122                     102              105.656854      -0.288922175349213      -0.687831576460862      -0.330302716066455
73                     122                     102              102.828427       0.293692300559049       0.244182235858265   -0.000992886655406059
74                     122                     102                     100      -0.286476351567887      -0.688631208662279       0.332004538485733
75                     124                     100              105.656854       0.326462679922281        1.23664609240465      -0.852095944642508
76                     124                     100              102.828427      -0.323092991781456       0.459571654163327    0.000263484730502005
77                     124                     100                     100       0.325383158622647        1.23660637513908       0.851607704772016
78                     126                     102              105.656854      -0.461819864646054      -0.727704694048682      -0.332049879975792
79                     126                     102              102.828427       0.397350992830663       0.281687628357541    0.000371587451890001
80                     126                     102                     100      -0.460767161244575       -0.72653000546825         0.3315006312939
81                     128                     100              105.656854       0.708342422266269        1.34072978126401      -0.754720230194783
82                     128                     100              102.828427      -0.280996873170755       0.396081035573886   -0.000278770668035221
83                     128                     100                     100       0.707956327592418        1.34008593977112       0.755162325088609
84                     130                     102              105.656854       -1.34066924262632      -0.708782572408366      -0.755444335813012
85                     130                     102              102.828427      -0.395787372802755       0.281039826281553    0.000695289994333573
86                     130                     102                     100       -1.34066841134786       -0.70765504446619        0.75430312150859
87                     100                     104              105.656854       0.959146715735553       0.100130844249977      -0.808407301197123
88                     100                     104              102.828427       0.727639520682504     -0.0672974687219102    -0.00108085650668496
89                     100                     104                     100       0.958547776636174      0.0987662779363707       0.810190581048183
90                     102                     106              105.656854      -0.513921905504587      -0.157296132058524      -0.382843778150917
91                     102                     106              102.828427       0.065289507355461       0.148312785150615     0.00225051225150005
92                     102                     106                     100      -0.512471592210205      -0.154184567629127         0.3792441939125
93                     104                     104              105.656854       0.247176488740621       0.253125301356098      -0.388467563788113
94                     104                     104              102.828427       -0.17992834769795      -0.184558355570321    -0.00139079655653359
95                     104                     104                     100       0.247267812599425       0.250529349009183       0.390656488133227
96                     106                     106              105.656854      -0.233041473834819      -0.245510390083506      -0.504820891831103
97                     106                     106              102.828427       0.225114888286627       0.233632764785439      0.0028165229785915
98                     106                     106                     100      -0.233973068765904      -0.239206500517707       0.500377671601927
99                     108                     104              105.656854       0.172701946214846       0.338830422975777      -0.375195184253762
100                     108                     104              102.828427       -0.17682596217021      -0.268848712200152   -0.000340352311356343
101                     108                     104                     100       0.175840262084682       0.336729984034089       0.375613375174959
102                     110                     106              105.656854      -0.180443917248836      -0.293187485136571       -0.49003665202914
103                     110                     106              102.828427       0.191250619999492       0.285567118424824    -0.00107420279643388
104                     110                     106                     100      -0.190372113571056      -0.291700340643702       0.491945144942174
105                     112                     104              105.656854       0.166217712009772        0.37894431969992       -0.39099749859362
106                     112                     104              102.828427      -0.173590371238288      -0.314175052768978     0.00315512862496489
107                     112                     104                     100       0.171392042648643       0.383224758370766       0.385749801043834
108                     114                     106              105.656854      -0.187219141162347      -0.306281745455658      -0.466525828337856
109                     114                     106              102.828427       0.196845892633607       0.311027944847848     -0.0088816364742787
110                     114                     106                     100      -0.194730937702757      -0.321921339324266       0.481794249998823
111                     116                     104              105.656854       0.198110430624957       0.404404889832926      -0.406547400181493
112                     116                     104              102.828427      -0.203312689840453      -0.343573536717518      0.0054776927413359
113                     116                     104                     100       0.198117751281252        0.41356598828741       0.397558147343883
114                     118                     106              105.656854       -0.24172999817553      -0.328500692933151      -0.450705738063962
115                     118                     106              102.828427       0.243706486873448        0.33383175594959    -0.00888656918769928
116                     118                     106                     100      -0.234276495055453      -0.344041268262607       0.465933247630249
117                     120                     104              105.656854       0.261004910167514       0.435446260597543      -0.421705301764911
118                     120                     104              102.828427      -0.265248446251802      -0.372528301167722     0.00319449104110418
119                     120                     104                     100       0.255919165943224       0.439776253167457       0.416415337737378
120                     122                     106              105.656854       -0.31952075413434      -0.362624431979776      -0.438223000226994
121                     122                     106              102.828427       0.320538015338052       0.357456083547511    -0.00124300428250222
122                     122                     106                     100       -0.30981938429608      -0.361484242920209        0.44032999462329
123                     124                     104              105.656854        0.36852984332022        0.46381193250196      -0.438531697025968
124                     124                     104              102.828427      -0.362838008926657      -0.397820442637609   -0.000247241574994435
125                     124                     104                     100       0.365404674846358       0.461897998531988       0.438831235248836
126                     126                     106              105.656854      -0.466423903141989      -0.369339402559392      -0.441679483865695
127                     126                     106              102.828427        0.40137339418535       0.361570657408092     0.00263524059274613
128                     126                     106                     100      -0.465348843603676      -0.363377667200357       0.437469880080516
129                     128                     104              105.656854       0.728129463041672       0.462441960452487      -0.330607307758565
130                     128                     104              102.828427      -0.282774052001703       -0.39710208441017    -0.00132940007084979
131                     128                     104                     100        0.72797096597063       0.459948184256106       0.332719859875104
132                     130                     106              105.656854       -1.23668887299042      -0.328444494887868      -0.853697261665783
133                     130                     106              102.828427      -0.458665205802854       0.323961676928483     0.00218850454616504
134                     130                     106                     100       -1.23802200782589      -0.325406724669011       0.850168439502608
135                     100                     108              105.656854        1.06317643963176       0.116766843541621      -0.799901677475763
136                     100                     108              102.828427       0.638114525779308      -0.116998937574768     -0.0025514029143304
137                     100                     108                     100        1.06067452479589       0.114280496078237       0.804031711758596
138                     102                     110              105.656854      -0.590339747926896      -0.155824796475239      -0.379259619021668
139                     102                     110              102.828427       0.138891925322556       0.156429982688335     0.00553982053229586
140                     102                     110                     100       -0.58382593829011      -0.150561962869762        0.37039906453162
141                     104                     108              105.656854       0.338579139346519       0.190018203613461      -0.370880864272547
142                     104                     108              102.828427      -0.267142653053554      -0.187965905888381     -0.0050739243395099
143                     104                     108                     100       0.334727648953276       0.182247370860191       0.379021209004886
144                     106                     110              105.656854      -0.299026371851171       -0.22001779966535      -0.507331686023925
145                     106                     110              102.828427       0.283290404721113       0.210651925156789      0.0119061750427689
146                     106                     110                     100      -0.288403192565409      -0.199421565066857       0.485067330766033
147                     108                     108              105.656854       0.221343143340808       0.251961363881501      -0.358219405597204
148                     108                     108              102.828427      -0.228407801115796      -0.244647119953044    -0.00532764888076723
149                     108                     108                     100       0.227703883248509       0.235859678824804       0.368278784824608
150                     110                     110              105.656854      -0.177027585485271       -0.25937484758722      -0.491897571009859
151                     110                     110              102.828427       0.214801712362309       0.243349928888899     0.00541540073638306
152                     110                     110                     100      -0.221204856399787      -0.232445090712704       0.475113804658328
153                     112                     108              105.656854        0.17403588417721       0.255979278695205       -0.39381150356043
154                     112                     108              102.828427      -0.197198711559865      -0.269063213031352      0.0083679577775817
155                     112                     108                     100       0.200756858126874       0.267110033916134       0.377884965781376
156                     114                     110              105.656854      -0.177608914341743      -0.183259376692391      -0.383717685233719
157                     114                     110              102.828427       0.208145658855256       0.245823117699439     -0.0274437548312534
158                     114                     110                     100      -0.212907071318992      -0.248980900553093       0.470257164542652
159                     116                     108              105.656854       0.220224169481803       0.249235450041154      -0.425886955217895
160                     116                     108              102.828427      -0.225919283127518       -0.28121130507178      0.0195114952375077
161                     116                     108                     100       0.220036755783988       0.285689886784587       0.388559538379662
162                     118                     110              105.656854      -0.285126040578796      -0.195177452392789       -0.36846419091143
163                     118                     110              102.828427       0.266558254775849       0.256871631328793     -0.0273776278271522
164                     118                     110                     100      -0.249389765451444      -0.259826216298627       0.453061332451522
165                     120                     108              105.656854       0.299990316931899       0.289384266931337      -0.428286463456683
166                     120                     108              102.828427      -0.290527640720853      -0.303334548046122     0.00850304543386362
167                     120                     108                     100       0.274070871572829       0.300507515196059       0.412490677911547
168                     122                     110              105.656854      -0.357706488118992      -0.289460425017516       -0.43402582543865
169                     122                     110              102.828427       0.334463310828894       0.276993692657596     0.00440267829676074
170                     122                     110                     100      -0.315446765967633      -0.265689444930451       0.419185610340498
171                     124                     108              105.656854       0.375749438171939       0.320191761051625       -0.43097563619198
172                     124                     108              102.828427      -0.368657432816339      -0.315941637123049    -0.00483441174312609
173                     124                     108                     100       0.369260473778207       0.305265458664462       0.440296002335531
174                     126                     110              105.656854      -0.437923869735223       -0.27481644433611      -0.435308060458432
175                     126                     110              102.828427        0.38095459213493       0.267992510079074      0.0112270009118732
176                     126                     110                     100      -0.447254194689149      -0.255224295081626       0.414123042721365
177                     128                     108              105.656854       0.688466655802225       0.293793727243517      -0.326226189741811
178                     128                     108              102.828427      -0.246958282411352      -0.295287163297719    -0.00486380769277836
179                     128                     108                     100       0.691947059689232       0.286294765471866       0.334104882680736
180                     130                     110              105.656854       -1.17963337397644      -0.228207580563032      -0.839276457256874
181                     130                     110              102.828427       -0.51266011443948       0.231193697215336     0.00542027608507954
182                     130                     110                     100       -1.18581112526796       -0.22295450536538       0.830532312491408
183                     100                     112              105.656854        1.11868152434909       0.138117223766851      -0.806342922962154
184                     100                     112              102.828427       0.583212908177174      -0.140096328927608    -0.00453532553729252
185                     100                     112                     100        1.11283964118779       0.135779313409336       0.813624380601527
186                     102                     114              105.656854      -0.639567397577719      -0.170271463842144      -0.371633159963324
187                     102                     114              102.828427       0.185346894979511       0.172925930720664     0.00888749586218049
188                     102                     114                     100      -0.626696890698559      -0.167639946981002       0.357285480491006
189                     104                     112              105.656854       0.402571605958359       0.187549818866397      -0.374196326479596
190                     104                     112              102.828427      -0.322600409885327      -0.185646269874059     -0.0122768016161999
191                     104                     112                     100       0.384966329760508       0.177541092102575       0.395318074506223
192                     106                     114              105.656854      -0.358079419916752      -0.207465959156049      -0.518559369685581
193                     106                     114              102.828427       0.322255193027576       0.207446956881665      0.0240516763215204
194                     106                     114                     100      -0.322481718437676      -0.199536639845594       0.466257264988359
195                     108                     112              105.656854       0.285473978067417       0.259403134260926      -0.303065959557274
196                     108                     112              102.828427      -0.262110997716043      -0.223409377057225     -0.0229889626842675
197                     108                     112                     100       0.261075829233058       0.210917759826433         0.3896237998273
198                     110                     114              105.656854      -0.148123789394318      -0.185498150502435      -0.750231186741763
199                     110                     114              102.828427       0.222586825147336       0.225155265224615      0.0170020024439152
200                     110                     114                     100      -0.239013237908273      -0.219868553592043       0.456398723259983
201                     112                     112              105.656854      0.0899577572241762        0.23002196176641      -0.432754784962331