ITEM: TIMESTEP
0
ITEM: NUMBER OF ATOMS
422
ITEM: BOX BOUNDS pp pp pp
0.0000000000000000e+00 3.2000000000000000e+01
0.0000000000000000e+00 3.2000000000000000e+01
0.0000000000000000e+00 3.2000000000000000e+01
ITEM: ATOMS id xu yu zu fx fy fz
1        13.1459321938386        15.9835208156773                10.95685    5.90414304361409e-05   -1.72580088154961e-06    -0.00382074266622204
2        18.8274848400711        15.9892262416344                10.95685   -5.84094922669669e-05   -1.19585500402233e-06    -0.00382330829028602
3         17.402344993917         15.987795112765                10.95685    4.89773272289162e-05    -1.2928333868456e-06    -0.00384388514155911
4         14.571072038949        15.9849519429358                10.95685   -4.74088567582465e-05   -1.57992272502294e-06    -0.00384600143158909
5        16.7010751677692        14.7497248501637                10.95685    5.94675755228868e-05   -5.81515262330912e-05    -0.00386768262141925
6        15.2748269908674        14.7482926087119                10.95685   -6.05272105697607e-05    -5.8246993980382e-05    -0.00387011504121287
7        15.2723418650276        17.2230222053877                10.95685   -6.04968670533945e-05    5.92752763218518e-05    -0.00386762289706303
8        16.6985900414216        17.2244544465825                10.95685      5.919343068575e-05     5.9085785455229e-05    -0.00386499216130708
9        14.5177569207574        13.5484462411751                10.95685   -4.93468724620597e-05    4.40709160664382e-05    -0.00396933435904245
10        17.4605534827313        13.5514014038861                10.95685    5.09797337758244e-05    4.37413376341705e-05    -0.00396784356501722
11        14.5128635507729         18.421345651893                10.95685   -4.91296058085459e-05   -4.15678002768377e-05    -0.00397172504218144
12        17.4556601106552        18.4243008141789                10.95685    5.13647568624814e-05    -4.1720870119198e-05    -0.00396907437848662
13        13.1273112602358        13.5624445878976                10.95685    6.66961105063035e-05    4.16199066573808e-05    -0.00393728795428615
14        13.1224488081137        18.4045547622743                10.95685    6.68911064045385e-05   -3.89382839603881e-05    -0.00393888611931885
15         18.850968226168        13.5681922935721                10.95685   -6.61865149898024e-05     4.1278311197921e-05    -0.00393992223749799
16        18.8461057714963        18.4103024705805                10.95685   -6.61516828351069e-05   -3.95671917385153e-05    -0.00394180000959402
17         12.426795838139        17.1943199436399                10.95685    4.11869373868924e-05    5.87442218518697e-05    -0.00384001232435636
18        12.4292290587396        14.7712798150634                10.95685    4.15168296535977e-05   -5.76832605274913e-05    -0.00384345440307991
19        19.5466211966922        14.7784271122721                10.95685   -4.34320061987087e-05   -5.78754305981317e-05    -0.00384441550983313
20        19.5441879750283        17.2014672429596                10.95685   -4.35161905940673e-05    5.87389820444449e-05    -0.00384266464575935
21        20.9551350226241        14.8244350858224                10.95685    6.60703531610551e-05   -6.24236023776573e-05      -0.003886093775107
22        20.9527913622507        17.1582882295758                10.95685    6.58788619310379e-05    6.23429901239235e-05    -0.00388412020547712
23        11.0206256731611        14.8144588294926                10.95685   -6.62459059898915e-05   -6.19750698240546e-05    -0.00388963125801081
24        11.0182820131454        17.1483119722736                10.95685    -6.6020817650292e-05    6.30657398706961e-05    -0.00388614881494491
25        21.5867264607395        15.9919970781177                10.95685    2.25922966945029e-05    -3.5306244882271e-07    -0.00226845574693325
26        10.3866905744716        15.9807499786644                10.95685   -2.13442354959721e-05   -1.32082638583724e-06    -0.00226947615546677
27         21.609196045824        18.1859221409264                10.95685    2.53395690342421e-05    -1.2373261272681e-05    -0.00236136233791521
28        21.6136022867001        13.7981215696947                10.95685    2.49634627512865e-05    1.35790159630945e-05    -0.00236119840808487
29        10.3598147507275        18.1746254872963                10.95685   -2.35437563459888e-05   -1.17231858173345e-05    -0.00236287112230807
30        10.3642209902605        13.7868249167297                10.95685   -2.38040216088903e-05    1.42238540935569e-05    -0.00236184586074473
31        12.5998668222426        12.6154548000933                10.95685    1.81499515021499e-05    1.84671848492343e-05    -0.00122110032504217
32        12.5931035005993        19.3504833212092                10.95685    1.80763658705321e-05   -1.91139862096404e-05    -0.00122204096292738
33        19.3803135329519        12.6222637346313                10.95685   -1.85388224204162e-05     1.8658278057098e-05    -0.00122199390061855
34        19.3735502071424         19.357292260389                10.95685    -1.8749451732831e-05    -1.9091483177137e-05    -0.00122292587653953
35        14.9622865728669        12.5689605638796                10.95685   -2.22901272026732e-05    1.86946704985869e-05    -0.00123631345723222
36         14.955425108682        19.4017221461408                10.95685   -2.23880831743814e-05   -1.93721231650724e-05     -0.0012376170793674
37        17.0179919240215        12.5710249097393                10.95685    2.23549548064028e-05    1.86747532336107e-05    -0.00123558404754679
38         17.011130457531        19.4037864905846                10.95685    2.24118296210897e-05   -1.92291244039676e-05    -0.00123618135159737
39                       0                       0                5.656854                       0                       0                       0
40                       0                       0                2.828427                       0                       0                       0
41                       0                       0                       0                       0                       0                       0
42                       2                       2                5.656854                       0                       0                       0
43                       2                       2                2.828427                       0                       0                       0
44                       2                       2                       0                       0                       0                       0
45                       4                       0                5.656854                       0                       0                       0
46                       4                       0                2.828427                       0                       0                       0
47                       4                       0                       0                       0                       0                       0
48                       6                       2                5.656854    5.15433488124422e-09     1.0573310662377e-08     4.8545015100313e-09
49                       6                       2                2.828427    6.99691030677523e-11    1.52879948259351e-10    1.09472987646165e-10
50                       6                       2                       0                       0                       0                       0
51                       8                       0                5.656854    1.34281276318283e-10    1.12730571615263e-11    1.97926346153399e-10
52                       8                       0                2.828427                       0                       0                       0
53                       8                       0                       0                       0                       0                       0
54                      10                       2                5.656854    2.26317178285072e-08    8.85658927304074e-08    4.12977323259555e-08
55                      10                       2                2.828427    3.60381896051796e-10     1.4062565308639e-09    1.02057724912144e-09
56                      10                       2                       0                       0                       0                       0
57                      12                       0                5.656854    3.80911493730157e-10     6.5760721259447e-11    1.25173340003437e-09
58                      12                       0                2.828427                       0                       0                       0
59                      12                       0                       0                       0                       0                       0
60                      14                       2                5.656854    1.38339610814682e-08    2.12770002413963e-07    1.00452238776311e-07
61                      14                       2                2.828427    2.60373151534291e-10    3.47419787274073e-09    2.54561202983184e-09
62                      14                       2                       0                       0                       0                       0
63                      16                       0                5.656854   -2.48527589317922e-12    9.01682398563682e-11    1.97732057567474e-09
64                      16                       0                2.828427                       0                       0                       0
65                      16                       0                       0                       0                       0                       0
66                      18                       2                5.656854   -1.41737227673246e-08    2.11647601845534e-07    9.99004873488642e-08
67                      18                       2                2.828427   -2.65871276391756e-10    3.45798618916069e-09    2.53321530987968e-09
68                      18                       2                       0                       0                       0                       0
69                      20                       0                5.656854   -3.83611880373555e-10    4.84324037132975e-11    1.24567877183236e-09
70                      20                       0                2.828427                       0                       0                       0
71                      20                       0                       0                       0                       0                       0
72                      22                       2                5.656854   -2.24447475338381e-08    8.71956725139824e-08    4.06379319034226e-08
73                      22                       2                2.828427   -3.57924845887324e-10    1.38685389095579e-09    1.00595294164534e-09
74                      22                       2                       0                       0                       0                       0
75                      24                       0                5.656854   -1.33725472495606e-10    6.46489706457299e-12    1.95860987810281e-10
76                      24                       0                2.828427                       0                       0                       0
77                      24                       0                       0                       0                       0                       0
78                      26                       2                5.656854   -5.04754994075205e-09    1.03178036478037e-08    4.73396062659343e-09
79                      26                       2                2.828427   -6.86723250199363e-11    1.49509892556682e-10     1.0697611722731e-10
80                      26                       2                       0                       0                       0                       0
81                      28                       0                5.656854                       0                       0                       0
82                      28                       0                2.828427                       0                       0                       0
83                      28                       0                       0                       0                       0                       0
84                      30                       2                5.656854                       0                       0                       0
85                      30                       2                2.828427                       0                       0                       0
86                      30                       2                       0                       0                       0                       0
87                       0                       4                5.656854                       0                       0                       0
88                       0                       4                2.828427                       0                       0                       0
89                       0                       4                       0                       0                       0                       0
90                       2                       6                5.656854    2.99469904302891e-08    2.71643242585463e-08    1.78788601509409e-08
91                       2                       6                2.828427      3.648930314489e-10    3.23313169008575e-10     3.4365812941899e-10
92                       2                       6                       0                       0                       0                       0
93                       4                       4                5.656854    3.41709157637587e-09    4.69215334381913e-09    2.51955720006383e-09
94                       4                       4                2.828427    1.35328686024779e-09    1.88045290791557e-09    1.60414899271073e-09
95                       4                       4                       0                       0                       0                       0
96                       6                       6                5.656854    7.83707473463364e-07     1.1475005943357e-06    7.69003807850496e-07
97                       6                       6                2.828427    1.08489307617239e-08    1.57112564320848e-08    1.60631045711428e-08
98                       6                       6                       0    1.63179053798623e-09    2.57324430359661e-09    3.59843730957667e-09
99                       8                       4                5.656854    3.42537756864917e-08    7.99244697992478e-08    4.39898951355642e-08
100                       8                       4                2.828427    1.71896261795273e-08    4.01586061438331e-08    3.38952004088398e-08
101                       8                       4                       0    5.61143365872443e-11    1.57138716711952e-10    1.85377379103374e-10
102                      10                       6                5.656854    4.08447587293625e-06    1.20173234504115e-05    8.42618951218132e-06
103                      10                       6                2.828427    4.35284563431915e-08    1.25117594059356e-07    1.32245386025975e-07
104                      10                       6                       0    7.75126004624749e-09    2.28416442628909e-08    3.25988190771835e-08
105                      12                       4                5.656854    6.24948880468703e-08      3.666054922433e-07    2.07879812491277e-07
106                      12                       4                2.828427    2.85858988393034e-08    1.63133148424909e-07    1.40582085015277e-07
107                      12                       4                       0    1.50582563198206e-10    9.32586194371704e-10     1.1141323839774e-09
108                      14                       6                5.656854    2.25985162254267e-06    3.08738212957346e-05    2.23326717394848e-05
109                      14                       6                2.828427    2.39097795238082e-08    2.87025419755947e-07    3.11563723197272e-07
110                      14                       6                       0    3.95896788215274e-09    4.99982396059802e-08    7.26920561412877e-08
111                      16                       4                5.656854   -5.64450463030616e-10    5.40173075113748e-07    3.09344577526758e-07
112                      16                       4                2.828427   -2.47750220550271e-10     2.3581271442215e-07    2.04899045248665e-07
113                      16                       4                       0   -1.53902775800586e-12    1.43531856529233e-09    1.72295813607827e-09
114                      18                       6                5.656854   -2.31937446261867e-06    3.07115413387061e-05    2.22062712059333e-05
115                      18                       6                2.828427   -2.44713587141482e-08    2.85760082863529e-07    3.10078296864146e-07
116                      18                       6                       0   -4.06472009609603e-09    4.98186026409021e-08    7.24036515803518e-08
117                      20                       4                5.656854   -6.25933112477297e-08    3.62630092476463e-07    2.05520871341347e-07
118                      20                       4                2.828427   -2.86627590343371e-08    1.61602001569425e-07    1.39195670572889e-07
119                      20                       4                       0   -1.51395618086782e-10    9.25289567762364e-10    1.10481534141236e-09
120                      22                       6                5.656854   -4.04485424006055e-06    1.18165841669278e-05    8.27796534836414e-06
121                      22                       6                2.828427   -4.32155049514273e-08    1.23361572353364e-07     1.3028217495708e-07
122                      22                       6                       0   -7.71653020967024e-09     2.2576739130718e-08    3.21932940525805e-08
123                      24                       4                5.656854    -3.3692800876459e-08    7.82381436958443e-08    4.30294940111252e-08
124                      24                       4                2.828427   -1.69515040761755e-08     3.9414127726843e-08    3.32420945845888e-08
125                      24                       4                       0   -5.55481907357991e-11    1.54687674897354e-10     1.8230824804919e-10
126                      26                       6                5.656854   -7.65396085779866e-07    1.11699964878921e-06    7.47771323561279e-07
127                      26                       6                2.828427   -1.06335099156777e-08    1.53500104230865e-08     1.5677866953874e-08
128                      26                       6                       0   -1.60568350585882e-09     2.5235842036268e-09    3.52477421285073e-09
129                      28                       4                5.656854   -3.32660053571525e-09    4.55667717993999e-09    2.44466345282448e-09
130                      28                       4                2.828427   -1.32152508076478e-09    1.83205937528275e-09    1.56128482362305e-09
131                      28                       4                       0                       0                       0                       0
132                      30                       6                5.656854   -2.90198030226577e-08    2.62831012809406e-08    1.72790399334724e-08
133                      30                       6                2.828427   -3.54974556261341e-10    3.14118517048775e-10    3.33436260268267e-10
134                      30                       6                       0                       0                       0                       0
135                       0                       8                5.656854    1.05694611941749e-10    3.60604665649968e-09    3.07528289872652e-09
136                       0                       8                2.828427    3.66642982852396e-11    1.36115615714181e-09    1.91010408231895e-09
137                       0                       8                       0                       0                       0                       0
138                       2                      10                5.656854    7.89237133061608e-07    4.05168206799498e-07    4.80891884775392e-07
139                       2                      10                2.828427    1.12172741835601e-08    5.77213663979839e-09    1.03457503755949e-08
140                       2                      10                       0    1.87608608068039e-09    9.07955248551818e-10    2.38865800484334e-09
141                       4                       8                5.656854    2.32981735021992e-07    2.06455575269388e-07    1.77384662562417e-07
142                       4                       8                2.828427    9.92975842161178e-08    8.76959145512973e-08    1.13981218520459e-07
143                       4                       8                       0    5.48032050684243e-10    5.02702622857752e-10     8.8978210291493e-10
144                       6                      10                5.656854    3.91193249069473e-05    3.32242470628553e-05    4.14405958748064e-05
145                       6                      10                2.828427    2.96337284050622e-07    2.49398329761704e-07    4.61074073842975e-07
146                       6                      10                       0    4.58573980005379e-08    3.85879962947146e-08     9.3960179658838e-08
147                       8                       8                5.656854     3.6132172278119e-06    5.92090979461978e-06    5.31523023918382e-06
148                       8                       8                2.828427    9.81368762403486e-07    1.55394321414176e-06    2.09456591957055e-06
149                       8                       8                       0    5.02635095417568e-09    7.83873977870344e-09    1.40734229689666e-08
150                      10                      10                5.656854    0.000259845233612299     0.00050425755308115    0.000679954870499097
151                      10                      10                2.828427    1.25809556559104e-06    2.29775672414542e-06    4.51474833598663e-06
152                      10                      10                       0    1.48397821392571e-07    2.59270098348458e-07    6.57782889693471e-07
153                      12                       8                5.656854    7.40874553102986e-06    3.30376249301859e-05    3.17699509221417e-05
154                      12                       8                2.828427    1.56784907002517e-06    6.57429364196174e-06    9.33286740188338e-06
155                      12                       8                       0    6.98726991675082e-09     2.7826583769426e-08    5.18804802911683e-08
156                      14                      10                5.656854    0.000100112083793329     0.00124027476831813     0.00182538102194573
157                      14                      10                2.828427    5.37471819630393e-07    4.91301419451222e-06    1.02803877602348e-05
158                      14                      10                       0    6.85407899510455e-08    5.13587193113533e-07    1.36241159035505e-06
159                      16                       8                5.656854   -5.41808657339328e-08    4.71398564388101e-05    4.63800604425301e-05
160                      16                       8                2.828427   -1.10948193655795e-08    9.12512520762445e-06     1.3221138775692e-05
161                      16                       8                       0   -4.85356253516389e-11    3.80010956678094e-08    7.20260125393102e-08
162                      18                      10                5.656854   -0.000103584639173492     0.00123596501179421     0.00181735228397746
163                      18                      10                2.828427   -5.50999446347603e-07    4.89872040487283e-06    1.02427243382859e-05
164                      18                      10                       0   -6.99763784633399e-08    5.12274797685526e-07    1.35807890641997e-06
165                      20                       8                5.656854   -7.42394593683944e-06    3.26884037198038e-05    3.14015262040299e-05
166                      20                       8                2.828427   -1.57308456070208e-06    6.51890492941347e-06    9.24595066655372e-06
167                      20                       8                       0   -7.01773745719985e-09    2.76345328126854e-08     5.1480160291327e-08
168                      22                      10                5.656854   -0.000257591904554478    0.000496524595628444    0.000668198941808823
169                      22                      10                2.828427   -1.25100694592777e-06     2.2701366959114e-06    4.45326111468789e-06
170                      22                      10                       0   -1.47851896583208e-07     2.5671190949375e-07    6.50393052755488e-07
171                      24                       8                5.656854   -3.54816061485819e-06    5.78756476681324e-06    5.18822547484129e-06
172                      24                       8                2.828427    -9.6750277017153e-07    1.52527853609694e-06    2.05337506915104e-06
173                      24                       8                       0   -4.97139376569202e-09    7.71945316420388e-09    1.38428791064836e-08
174                      26                      10                5.656854   -3.81399299888265e-05     3.2309001327046e-05    4.02183806449903e-05
175                      26                      10                2.828427   -2.90461000153006e-07    2.43815574246693e-07    4.49985994951975e-07
176                      26                      10                       0   -4.51321455180614e-08    3.78768288903142e-08    9.20824243694616e-08
177                      28                       8                5.656854   -2.26217794932932e-07    2.00064406642127e-07    1.71649021831273e-07
178                      28                       8                2.828427   -9.68393377107795e-08    8.53523897472994e-08    1.10790945566324e-07
179                      28                       8                       0   -4.85318358899789e-10     4.2728432524042e-10    7.80598547086541e-10
180                      30                      10                5.656854   -7.63257590558847e-07    3.91735462449939e-07    4.64151466553586e-07
181                      30                      10                2.828427   -1.09012067464709e-08    5.60352573499848e-09    1.00270967858309e-08
182                      30                      10                       0   -1.12714987152559e-09    5.10475699540309e-10    1.47262418168405e-09
183                       0                      12                5.656854    1.12901009049634e-09    1.74408528031755e-08    3.19149479750781e-08
184                       0                      12                2.828427    5.20422173193149e-10    9.50298530107976e-09    2.56080876724692e-08
185                       0                      12                       0                       0                       0                       0
186                       2                      14                5.656854    4.07830991561173e-06    6.12542791928543e-07    2.48651131293194e-06
187                       2                      14                2.828427    4.98086593312144e-08    7.88097622110824e-09    4.61670228250194e-08
188                       2                      14                       0    9.45297903186626e-09    1.63046602435329e-09    1.20062946180248e-08
189                       4                      12                5.656854    3.82265534253177e-06    1.49965220513437e-06    2.97428053932334e-06
190                       4                      12                2.828427    1.08904961045014e-06     4.4280878710287e-07    1.27166469152591e-06
191                       4                      12                       0    5.81377705066941e-09    2.44084782876229e-09    9.07432197246552e-09
192                       6                      14                5.656854    0.000311573904869731    7.14655167529443e-05    0.000337816492071182
193                       6                      14                2.828427    1.60838734299859e-06    4.04317924285363e-07      2.564259071889e-06
194                       6                      14                       0     1.9521767738554e-07    5.13209478462102e-08    4.03878568284281e-07
195                       8                      12                5.656854    9.97179128662743e-05    7.75794583638095e-05    0.000167896870463419
196                       8                      12                2.828427    1.33210731517817e-05    1.02119174238516e-05    3.12214313483719e-05
197                       8                      12                       0    4.51043406507742e-08    3.41315187552866e-08    1.32361845865455e-07
198                      10                      14                5.656854     0.00212523705774153      0.0012944130553347     0.00699415611163886
199                      10                      14                2.828427     6.5572246552084e-06    3.89761968346228e-06     2.7255980276864e-05
200                      10                      14                       0    5.85796017703909e-07    3.36991292017236e-07    2.84334857565789e-06
201                      12                      12                5.656854    0.000161216622212543    0.000412353349597589      0.0010339632703059