ITEM: TIMESTEP
0
ITEM: NUMBER OF ATOMS
422
ITEM: BOX BOUNDS pp pp pp
0.0000000000000000e+00 3.2000000000000000e+01
0.0000000000000000e+00 3.2000000000000000e+01
0.0000000000000000e+00 3.2000000000000000e+01
ITEM: ATOMS id xu yu zu fx fy fz
1        13.1743101159377        16.0118987377764        8.68522792209913    -0.00541057050520241   -0.000370978108103205     0.00555872740478901
2        18.8767060492379        16.0384474508012        8.70607120916683      0.0050501216477992    -0.00105611567739922     0.00283180505065826
3        17.4142184728926        15.9996685917406         8.6687234789756    -0.00517766386831437    1.35501060154825e-05       0.011577704342259
4         14.542720581212        15.9566004851988        8.62849854226294     0.00570653584540985     0.00209583222201551       0.017380488021386
5        16.7448502664502        14.7934999488447        8.70062509868104     -0.0202679636492952      0.0132215647355722      0.0323856840436327
6        15.3080390773912        14.7815046952357        8.69006208652377       0.020158249464689      0.0125926798065093      0.0310974010888958
7        15.3150362274339        17.2657165677941        8.69954436240633      0.0202488974785351     -0.0118583526602548      0.0309408026946822
8        16.7483810220852        17.2742454272462        8.70664098066367     -0.0212454701390754     -0.0127171861246314      0.0346012594645289
9        14.4690332308887        13.4997225513064        8.60812631013128      0.0321736387739505     -0.0343206883238335       0.177863166039801
10        17.4899884138952        13.5808363350499        8.68628493116389      -0.026968085906611     -0.0221556296523651       0.135305427647909
11        14.5208087045785        18.4292908056987        8.66479515380563      0.0294041367314007      0.0242282184835859       0.145018226787757
12        17.4834041292055        18.4520448327291        8.68459401855026      -0.026881232260976      0.0235158625011128       0.132820926916694
13        13.1602326149946        13.5953659426565        8.68977135475887     -0.0334137288337096     -0.0161013706833086      0.0977353370602373
14        13.1644961418628        18.4466020960235        8.69889733374917     -0.0316070608916825      0.0168964363854255      0.0921927732327327
15        18.8313240382004        13.5485481056045        8.63720581203239      0.0392597635315723     -0.0213269612676715       0.118295110526223
16        18.8945737369668         18.458770436051        8.70531796547052      0.0307875509298442      0.0158065789026859      0.0825371238802004
17        12.4007769563156        17.1683010618166        8.63083111817662     -0.0145313249121922    -0.00962398718321339      0.0209796806059621
18         12.421367880174        14.7634186364979        8.64898882143445     -0.0153594281159199     0.00926093129481207      0.0215501674272075
19        19.5183797367741         14.750185652354        8.62860854008189      0.0188576991630729      0.0109009896927584       0.028657643146227
20        19.5710634128177         17.228342680749        8.68372543778944      0.0137632907006166    -0.00835472985576407      0.0168909837530856
21        20.9287855127925        14.7980855759908        8.63050049016843     -0.0293115171129946      0.0220143732426362      0.0637847428671885
22        20.9391615101687        17.1446583774937        8.64322014791795     -0.0265445576929524     -0.0215453337271433      0.0570448710888926
23         11.031583377397        14.8254165337285        8.66780770423595      0.0254670778348682      0.0204877780644582      0.0555500662282511
24         11.049954953532        17.1799849126602         8.6885229403866      0.0236489390149261     -0.0185890987983893      0.0492620398628701
25        21.6121005290109        16.0173711463891        8.68222406827144    -0.00132609673144579   -0.000307640794156945    -0.00310433713643548
26        10.3559436475595        15.9500030517523        8.62610307308786      0.0015434059024944     0.00109750379652413   -0.000209500569899526
27        21.6334435907627         18.210169685865        8.68109754493868    -0.00959849941239482     0.00549609527696999      0.0616701383274827
28          21.56534894587        13.7498682288646        8.60859665916989     -0.0142603208418902    -0.00819358257331155      0.0789362313199687
29        10.3676225071821         18.182433243751        8.66465775645466      0.0103115737196609     0.00510974667746032      0.0667034472005984
30         10.340947451897        13.7635513783662        8.63357646163651      0.0107222327145879    -0.00742998886963577      0.0757617741534436
31        12.6329599742145        12.6485479520652        8.68994315197188   -0.000559710505463941   -0.000546578684875536    -0.00915462142030056
32           12.5490262259          19.30640604651        8.61277272530075    -0.00081722664457845    0.000679911438012211    -0.00886947667197647
33        19.3564107362903        12.5983609379697        8.63294720333839    0.000661219901826824   -0.000702687605345681    -0.00899386854519374
34        19.3676104466281        19.3513524998747        8.65091023948572    0.000689434558456714    0.000674277318761685    -0.00896242636696928
35        14.9889688654805        12.5956428564932        8.68353229261361     0.00076474392474265    -0.00127453636904234     -0.0079475585014783
36        14.9802221411373        19.4265191785961        8.68164703245532    0.000727936502063668     0.00125941969153842    -0.00802377060687591
37         17.044904163048        12.5979371487658        8.68376223902647   -0.000784634776496379    -0.00135346187592778    -0.00779544529488784
38        16.9704906111792        19.3631466442328        8.61621015364822    -0.00116887424123737     0.00170122585283421    -0.00715480006903816
39                       0                       0                5.656854                       0                       0                       0
40                       0                       0                2.828427                       0                       0                       0
41                       0                       0                       0                       0                       0                       0
42                       2                       2                5.656854    5.86065671808042e-10    8.26550422619275e-10    2.09155477759103e-10
43                       2                       2                2.828427                       0                       0                       0
44                       2                       2                       0                       0                       0                       0
45                       4                       0                5.656854                       0                       0                       0
46                       4                       0                2.828427                       0                       0                       0
47                       4                       0                       0                       0                       0                       0
48                       6                       2                5.656854    1.75638500769569e-08    3.59064468589877e-08    9.24505571175481e-09
49                       6                       2                2.828427    6.02018669955755e-10    1.28484455242066e-09    6.45474478645426e-10
50                       6                       2                       0                       0                       0                       0
51                       8                       0                5.656854    6.53623872730945e-10    1.25105894330423e-11     4.6313610821546e-10
52                       8                       0                2.828427    3.73011788901188e-10   -1.63413735857316e-11    4.73121790226534e-10
53                       8                       0                       0                       0                       0                       0
54                      10                       2                5.656854    7.54866004387758e-08    2.93026142717776e-07    7.74630137726523e-08
55                      10                       2                2.828427    2.65290749438857e-09    1.04627610207976e-08    5.37027429870784e-09
56                      10                       2                       0    9.05279964221338e-10    3.97615403018582e-09    3.08433395083996e-09
57                      12                       0                5.656854    1.34817421675395e-09    8.47304706695798e-11     2.1791632303955e-09
58                      12                       0                2.828427    1.69185897603469e-09    5.43020923510579e-11    5.10691186861367e-09
59                      12                       0                       0                       0                       0                       0
60                      14                       2                5.656854    4.84009922490732e-08    7.23884264225655e-07    1.94523084975796e-07
61                      14                       2                2.828427    1.64596444782418e-09    2.50756376120538e-08    1.30382247043914e-08
62                      14                       2                       0    8.01145749136264e-10    1.06592522031963e-08    8.34421562060216e-09
63                      16                       0                5.656854    1.77904610244947e-11    1.35344758724835e-10    3.29578184625063e-09
64                      16                       0                2.828427    2.02755739967824e-12    1.74010180126801e-10    7.16931639605189e-09
65                      16                       0                       0                       0                       0                       0
66                      18                       2                5.656854    -4.5461960940666e-08     7.3387242757806e-07    1.96906236292979e-07
67                      18                       2                2.828427    -1.5373812857802e-09    2.54779341473162e-08    1.32423839714466e-08
68                      18                       2                       0    -6.1919017841953e-10    1.13860030711532e-08    8.88778975713321e-09
69                      20                       0                5.656854   -1.31819690979421e-09     2.2481290833692e-10    2.20609480143158e-09
70                      20                       0                2.828427   -1.42197093542969e-09   -2.86404048285394e-10    4.99778173843209e-09
71                      20                       0                       0                       0                       0                       0
72                      22                       2                5.656854    -7.7605210358496e-08    3.01745960609414e-07     7.9418547293789e-08
73                      22                       2                2.828427   -2.75137318093157e-09    1.08718959616249e-08    5.57265820355951e-09
74                      22                       2                       0   -9.91610531433348e-10    4.28844226840303e-09    3.32246200805526e-09
75                      24                       0                5.656854   -6.81296128363854e-10    4.81299401905343e-11    4.77749216992787e-10
76                      24                       0                2.828427   -3.95335392301387e-10    3.74156371474808e-11    4.95484190191941e-10
77                      24                       0                       0                       0                       0                       0
78                      26                       2                5.656854   -1.80039707564929e-08    3.62031989491068e-08    9.26394133446742e-09
79                      26                       2                2.828427   -6.35948617418264e-10    1.32638659353679e-09    6.64633390846755e-10
80                      26                       2                       0                       0                       0                       0
81                      28                       0                5.656854                       0                       0                       0
82                      28                       0                2.828427                       0                       0                       0
83                      28                       0                       0                       0                       0                       0
84                      30                       2                5.656854   -5.58918380284969e-10    7.78599763866134e-10    1.95595907346218e-10
85                      30                       2                2.828427                       0                       0                       0
86                      30                       2                       0                       0                       0                       0
87                       0                       4                5.656854    1.23258300273167e-11    3.15186238452103e-10    9.57721057040347e-11
88                       0                       4                2.828427                       0                       0                       0
89                       0                       4                       0                       0                       0                       0
90                       2                       6                5.656854    1.02134268375164e-07    9.40346559646806e-08    3.49160108308337e-08
91                       2                       6                2.828427    3.80850745301871e-09    3.47087388523532e-09    2.50696887611456e-09
92                       2                       6                       0    1.14763187127007e-09    1.06818788242449e-09    1.18789472869389e-09
93                       4                       4                5.656854    1.12695840901689e-08    1.55260795394164e-08    4.71603079770883e-09
94                       4                       4                2.828427    1.35586254592233e-08    1.89285417558087e-08    1.11311720289874e-08
95                       4                       4                       0    1.50734971336643e-10    2.11725478166036e-10     1.9179356660552e-10
96                       6                       6                5.656854    3.30240310567622e-06    4.95273363498298e-06    1.88339099483619e-06
97                       6                       6                2.828427    9.09176263911438e-08    1.34407719728453e-07    9.86990760275397e-08
98                       6                       6                       0    3.48135148095348e-08    5.05575595609473e-08    5.52818176573428e-08
99                       8                       4                5.656854    1.25739423840713e-07    2.99529782287321e-07    9.36218809287152e-08
100                       8                       4                2.828427    1.27871249044759e-07    3.02127056083512e-07    1.82368642006401e-07
101                       8                       4                       0    1.75151534410671e-09    4.17184743114163e-09     3.7326104251294e-09
102                      10                       6                5.656854    2.08721468653716e-05    6.30404450155681e-05    2.52924109760797e-05
103                      10                       6                2.828427    4.36401569813266e-07    1.29431462426324e-06    9.91745677773874e-07
104                      10                       6                       0    1.33181007974054e-07    3.85756936756819e-07    4.31981622962695e-07
105                      12                       4                5.656854    2.54792491633483e-07    1.52268037651753e-06     4.9270732544499e-07
106                      12                       4                2.828427    2.29378721798567e-07    1.33503908777291e-06     8.2955878345432e-07
107                      12                       4                       0    2.89322641630464e-09    1.64141478799067e-08    1.50052625617277e-08
108                      14                       6                5.656854    1.20765265010234e-05    0.000178847858650497    7.43282813193713e-05
109                      14                       6                2.828427    2.48066451264814e-07    3.24538633818394e-06    2.56726063162901e-06
110                      14                       6                       0    7.45570277673904e-08    8.66818042322666e-07    9.97444654753479e-07
111                      16                       4                5.656854    5.33578362473353e-09    2.30479150093163e-06    7.53760604330751e-07
112                      16                       4                2.828427    5.20920386031082e-09    1.97609279747506e-06    1.24117905072531e-06
113                      16                       4                       0    7.13800144031143e-11     2.3522915987562e-08    2.17573982666498e-08
114                      18                       6                5.656854   -1.09283529401493e-05    0.000181438367140267    7.53902638487502e-05
115                      18                       6                2.828427   -2.27062491899577e-07    3.28888274269148e-06    2.60426716269814e-06
116                      18                       6                       0   -6.92297283734907e-08    8.76820815434494e-07    1.01009446786452e-06
117                      20                       4                5.656854   -2.55603714273412e-07     1.5703150029629e-06    5.06604728184044e-07
118                      20                       4                2.828427   -2.29294730802938e-07    1.37539270132787e-06    8.54870251471157e-07
119                      20                       4                       0   -2.85189078805219e-09    1.66935642975286e-08    1.53073586069085e-08
120                      22                       6                5.656854   -2.18827527213703e-05     6.5448083251414e-05    2.61628684965709e-05
121                      22                       6                2.828427   -4.54842673441054e-07    1.34266271736879e-06    1.03008557864758e-06
122                      22                       6                       0   -1.37521436573442e-07    3.97941914681709e-07    4.46740324015385e-07
123                      24                       4                5.656854   -1.30732940068813e-07    3.06201656423712e-07    9.52158821914338e-08
124                      24                       4                2.828427   -1.33348377860739e-07    3.10611536024863e-07    1.87441780851795e-07
125                      24                       4                       0   -1.80643135865013e-09     4.2015753392133e-09    3.77986884344556e-09
126                      26                       6                5.656854   -3.32865131204059e-06    4.88194251631474e-06    1.84764024709887e-06
127                      26                       6                2.828427   -9.26335659364506e-08    1.34181231295497e-07    9.85555202014914e-08
128                      26                       6                       0     -3.611711092581e-08    5.17937715069651e-08    5.64602906920546e-08
129                      28                       4                5.656854   -1.11882557055171e-08    1.51475797813361e-08    4.57489540694844e-09
130                      28                       4                2.828427   -1.36853571438945e-08    1.87378302044152e-08    1.10079866761241e-08
131                      28                       4                       0   -1.52858487597268e-10    2.10079858022618e-10    1.90472288695943e-10
132                      30                       6                5.656854   -9.77207182885759e-08    8.88911338981913e-08    3.28124502205785e-08
133                      30                       6                2.828427   -3.70198578010308e-09    3.32289129437699e-09    2.39787318402386e-09
134                      30                       6                       0   -1.10288084712543e-09    1.01334141537196e-09    1.12562527069542e-09
135                       0                       8                5.656854    7.63351736504401e-10     1.2902988656726e-08    6.12037447400939e-09
136                       0                       8                2.828427    7.81140176618512e-10    1.47804361070057e-08      1.384538073879e-08
137                       0                       8                       0    8.84036710440612e-12    1.54241698473015e-10    2.30990207026592e-10
138                       2                      10                5.656854    3.35267962626066e-06    1.69706365061802e-06    1.15967759649633e-06
139                       2                      10                2.828427    9.45704099306974e-08    4.84680973890642e-08     6.3292698462886e-08
140                       2                      10                       0    3.79384334175629e-08    1.95600046863082e-08     3.7321957186179e-08
141                       4                       8                5.656854    1.05638467295988e-06    9.43279920839248e-07    4.62278668459192e-07
142                       4                       8                2.828427    8.75946548773697e-07    7.79420311070854e-07    7.34885222028254e-07
143                       4                       8                       0    1.01497550560811e-08    8.98389811099066e-09    1.24502927631183e-08
144                       6                      10                5.656854    0.000288241903685667    0.000247646116894913    0.000179181256109313
145                       6                      10                2.828427     4.0690118507787e-06    3.47209910159136e-06    4.73927149506121e-06
146                       6                      10                       0    8.88863486363282e-07     7.5157367196755e-07     1.4723313969575e-06
147                       8                       8                5.656854     2.3081225701522e-05    3.96934426587555e-05    2.03750494382499e-05
148                       8                       8                2.828427    1.20261774053851e-05    1.99157462137727e-05    1.95323644440355e-05
149                       8                       8                       0    9.12672355842941e-08    1.45693713201011e-07    2.07934829978023e-07
150                      10                      10                5.656854     0.00275983014923073     0.00569220787974238     0.00449097023036343
151                      10                      10                2.828427    2.36323595157475e-05    4.63143833525266e-05     6.7706453159586e-05
152                      10                      10                       0    3.44682001295354e-06    6.31861051685955e-06    1.30689168057618e-05
153                      12                       8                5.656854     6.1095164743245e-05     0.00028140211750608    0.000157557515639446
154                      12                       8                2.828427     2.3237567898118e-05    0.000102450078239823    0.000107160043850966
155                      12                       8                       0    1.40131412172991e-07    5.83368269854018e-07     8.7390260005833e-07
156                      14                      10                5.656854    0.000975825940919591      0.0149149958979032      0.0130443459172103
157                      14                      10                2.828427    9.39139862965094e-06    0.000109743698018683    0.000174653416507957
158                      14                      10                       0    1.48697849546798e-06    1.31561325324199e-05    2.89341056447476e-05
159                      16                       8                5.656854    3.44449226063416e-07    0.000415136929764283    0.000238561315700737
160                      16                       8                2.828427    2.68541692153266e-07    0.000145777787754906    0.000156375787994264
161                      16                       8                       0    2.17660184197046e-09    8.07041373692949e-07     1.2361123551412e-06
162                      18                      10                5.656854    -0.00083855392562413      0.0150757428792516      0.0132030425580374
163                      18                      10                2.828427   -8.04738484414494e-06    0.000110343359916459    0.000176098956779281
164                      18                      10                       0   -1.36887006244042e-06    1.32275602177294e-05     2.9170419732328e-05
165                      20                       8                5.656854   -6.15456825096513e-05    0.000293195456215272    0.000164098460688386
166                      20                       8                2.828427   -2.31673887895914e-05    0.000105747236661701    0.000110935528232967
167                      20                       8                       0   -1.39302718536737e-07    5.96730785450077e-07    8.96899551846776e-07
168                      22                      10                5.656854    -0.00292624204506025     0.00583299272995432     0.00460831768979773
169                      22                      10                2.828427   -2.47976487729526e-05    4.75477174665904e-05    6.99724463394517e-05
170                      22                      10                       0   -3.55499507837086e-06    6.43473267765527e-06    1.34086314827637e-05
171                      24                       8                5.656854   -2.38608507149113e-05    3.97921002659814e-05    2.03667173542169e-05
172                      24                       8                2.828427   -1.24951105364875e-05    2.01843707117383e-05    1.98431406498401e-05
173                      24                       8                       0   -9.44220153234868e-08    1.47954756302692e-07    2.12062211788243e-07
174                      26                      10                5.656854   -0.000280013405555182    0.000234969222946254    0.000169300087920467
175                      26                      10                2.828427   -4.04840062069924e-06     3.3761011832142e-06    4.61658254294274e-06
176                      26                      10                       0   -8.95227480926914e-07    7.41254340210201e-07    1.45884526959934e-06
177                      28                       8                5.656854   -1.01613218363777e-06     8.9191266359776e-07    4.34782074332498e-07
178                      28                       8                2.828427   -8.58912112468061e-07    7.51137627528602e-07    7.07979595705434e-07
179                      28                       8                       0   -1.01032591464781e-08    8.79655970681699e-09    1.22089074408839e-08
180                      30                      10                5.656854   -3.12314247713778e-06    1.56856206218313e-06    1.06385677077403e-06
181                      30                      10                2.828427   -8.98509707505273e-08    4.56272683465233e-08    5.94334743121136e-08
182                      30                      10                       0   -3.67679782619379e-08    1.87228720518586e-08    3.57320442008938e-08
183                       0                      12                5.656854    9.02052624142166e-09     6.0927499812544e-08    6.42873422002222e-08
184                       0                      12                2.828427     8.0518536349996e-09    6.84914695375545e-08    1.37760112301767e-07
185                       0                      12                       0    9.31951890283082e-11    1.02289241459679e-09    2.94322132832929e-09
186                       2                      14                5.656854    1.94035133390345e-05     2.7107092496031e-06    6.71486900658989e-06
187                       2                      14                2.828427    4.68517163003289e-07     6.9517810597863e-08    3.14247454045843e-07
188                       2                      14                       0    1.61990218449353e-07    2.52969152513328e-08    1.58818729289314e-07
189                       4                      12                5.656854    2.42382620895439e-05    9.15517810776409e-06    1.08304825461087e-05
190                       4                      12                2.828427     1.3294236538775e-05    5.22843077136779e-06    1.13688408533453e-05
191                       4                      12                       0    1.04641924250799e-07     4.2590391051759e-08    1.30177370353129e-07
192                       6                      14                5.656854     0.00321101774563651    0.000649945853522668     0.00202853169132486
193                       6                      14                2.828427    2.98326042760919e-05    6.86439042709486e-06     3.5465007311231e-05
194                       6                      14                       0    4.53320893334258e-06    1.13689642921171e-06    7.67004652068644e-06
195                       8                      12                5.656854     0.00132727345131625      0.0010488872092694     0.00137385890255929
196                       8                      12                2.828427     0.00028706494171356    0.000224541320903736    0.000526780886737177
197                       8                      12                       0    1.12984436339218e-06    8.69655981172217e-07    2.80162642355872e-06
198                      10                      14                5.656854     -0.0188167054172937    -0.00675406974194528      -0.141519419183105
199                      10                      14                2.828427    0.000179353915342306    0.000109604331894971    0.000635702785107123
200                      10                      14                       0    1.69332747465037e-05     1.0042761706275e-05    7.33503625907231e-05
201                      12                      12                5.656854     0.00191056823593868      0.0056784120835453     0.00815669400148934