ITEM: TIMESTEP
0
ITEM: NUMBER OF ATOMS
422
ITEM: BOX BOUNDS pp pp pp
0.0000000000000000e+00 3.2000000000000000e+01
0.0000000000000000e+00 3.2000000000000000e+01
0.0000000000000000e+00 3.2000000000000000e+01
ITEM: ATOMS id xu yu zu fx fy fz
1        13.1062451932912        15.9438338151299        8.61716299945264        8.01478766749325        7.11380532323465        1.59525880659953
2         18.826970794532        15.9887121960953         8.6563359544609       0.956732581154396       0.198326380012432      0.0858588519637242
3        17.4348211463485        16.0202712651965         8.6893261524315       -2.20737240824755       -2.26003753076199      -0.291702054382223
4        14.6035612017406        16.0174411057275        8.68933916279162       -3.22900254836885       -3.14295589212151      -0.797121312633709
5        16.7194918845716        14.7681415669661        8.67526671680238       -0.23300802259716      -0.354402022833612      0.0473803175223611
6        15.3079724403682        14.7814380582127        8.68999544950075       -3.22385339277187       -3.45679507579653      -0.636935686216528
7        15.2890532112364        17.2397335515965        8.67356134620881      -0.314497814529199      -0.185971060153172      0.0370026099692357
8        16.7106722663514        17.2365366715124        8.66893222492988       0.375733621123493        0.78573011394077       0.348922665634018
9        14.4713258237556        13.5020151441734        8.61041890299824        2.88310248768281        3.32786772804271       0.674210558100943
10        17.4391489768659        13.5299968980207        8.63544549413461        3.16563529143182        2.78701665422874        0.84218450008218
11        14.5008061642932        18.4092882654133         8.6447926135203      0.0828123548109359        1.71276381653519       0.191042361035049
12        17.4585143734283         18.427155076952        8.65970426277308       -1.60433723709571      -0.965473025687331      -0.133936589563218
13         13.079062392551        13.5141957202128        8.60860113231523        3.09023409855656        4.76008752898134       0.656083059077808
14        13.0745314175446        18.3566373717053        8.60893260943095        5.42960098906182         4.9329653043135       0.603044774438162
15        18.8821241920656        13.5993482594696        8.68800596589753       -5.29472711234459       -5.31054981073179      -0.679808996594528
16        18.8045672525305        18.3687639516147        8.61531148103425        5.59066364922367          6.174484944582        1.18668110935218
17        12.4736962704347        17.2412203759357        8.70375043229575       -5.65218645430371       -7.05338237953652      -0.968118736229771
18        12.4583554805553        14.8004062368792        8.68597642181576       -4.16111509686427       -5.15595076913037      -0.743959211539823
19        19.4972315263526        14.7290374419324        8.60746032966033        4.07971901716702        4.13795451496749       0.440127682335264
20        19.5659265747424        17.2232058426737        8.67858859971411       -4.05405640972697       -5.03763410778223       -1.06411762940432
21        20.9101915529536         14.779491616152        8.61190653032959        4.72153369725205        5.48514987432762        1.05983634009153
22        20.9183631313164        17.1238599986415        8.62242176906572        6.46226217389654        7.38834952830096         1.4113738728797
23        11.0499543624258        14.8437875187573        8.68617868926469       -2.68260582232101       -3.03104201181479      -0.213900920891933
24        11.0625038995009        17.1925338586292        8.70107188635553      -0.533963292684147      -0.415615292003405       0.220888690418397
25        21.5861170194546        15.9913876368328        8.65624055871509        -4.8564004682597        -3.4865337305526       -1.03665132871921
26        10.4161076272839        16.0101670314767        8.68626705281227       0.643592537308929        1.04327824730285       0.153837031086947
27        21.6253446944339        18.2020707895362        8.67299864860982       -3.06488209367954       -3.97884603158199      -0.463035063736159
28        21.6589233318902        13.8434426148848        8.70217104519011       -1.54117763301981       -2.85257281661114      -0.243356627516722
29        10.4082659337297        18.2230766702985        8.70530118300225      -0.340746200854389      -0.159389304861937      0.0715335908651606
30        10.3489921086254        13.7715960350947        8.64162111836492        2.55372195450978        3.52887777661813       0.366035783804906
31        12.6119901006078        12.6275780784584        8.66897327836512        -1.7065740777841       -1.92837622700778     -0.0722598321052285
32        12.5753834086223        19.3327632292323        8.63912990802301      -0.169238818769593       -0.49127685246873      -0.134506241765735
33        19.3693426206797        12.6112928223591        8.64587908772783        0.41870404343316        0.80385627185722        0.18350677231224
34        19.4133404934603        19.3970825467069        8.69664028631792       -2.10953648517721       -2.83396934861204      -0.558853445240101
35        14.9321205095514        12.5387945005641        8.62668393668454      0.0111843084890713      -0.297689256663278      -0.110763267617782
36        14.9900250027624        19.4363220402212        8.69144989408041        -1.4744229761121       -1.54914114227574      -0.219006255971842
37        17.0122618954036        12.5652948811214        8.65111997138206      -0.455664034606763      -0.538015257971264     -0.0725347130739811
38        17.0002744268879        19.3929304599414        8.64599396935686       0.410215777438242       0.297292992476984      0.0380364716338798
39                       0                       0                5.656854                       0                       0                       0
40                       0                       0                2.828427                       0                       0                       0
41                       0                       0                       0                       0                       0                       0
42                       2                       2                5.656854    5.75145240973557e-10    8.10921528031311e-10    2.05614591702444e-10
43                       2                       2                2.828427                       0                       0                       0
44                       2                       2                       0                       0                       0                       0
45                       4                       0                5.656854                       0                       0                       0
46                       4                       0                2.828427                       0                       0                       0
47                       4                       0                       0                       0                       0                       0
48                       6                       2                5.656854    1.82230011401727e-08    3.66952527538942e-08    9.45257201892343e-09
49                       6                       2                2.828427    6.72688494373686e-10    1.37475845806363e-09    6.93464671277722e-10
50                       6                       2                       0                       0                       0                       0
51                       8                       0                5.656854    6.81486344556925e-10    7.79220691715617e-11    4.78732720573779e-10
52                       8                       0                2.828427    3.84314781006394e-10    7.36908078847361e-12    4.87374645904263e-10
53                       8                       0                       0                       0                       0                       0
54                      10                       2                5.656854    8.03835126548448e-08    3.08162581516801e-07    8.11870201730269e-08
55                      10                       2                2.828427    2.86467148281089e-09    1.10981988614271e-08    5.69653505835883e-09
56                      10                       2                       0    1.01627879834477e-09    4.35557052558401e-09    3.37529646477379e-09
57                      12                       0                5.656854    1.38394347099892e-09    4.67838576129749e-10    2.23836080505686e-09
58                      12                       0                2.828427    1.73788367372757e-09    6.11740606977977e-10    5.29023389446823e-09
59                      12                       0                       0                       0                       0                       0
60                      14                       2                5.656854    4.82785791727654e-08    7.64676301789461e-07    2.04300361200118e-07
61                      14                       2                2.828427    1.64645827135197e-09    2.65930604722789e-08    1.38139997163377e-08
62                      14                       2                       0    8.16021929057127e-10    1.15438475723657e-08    9.02717437256297e-09
63                      16                       0                5.656854   -2.92140493404927e-11    5.26471065407981e-10     3.3366819101917e-09
64                      16                       0                2.828427   -2.50350529504857e-10    1.67865294860093e-09    7.85477324402675e-09
65                      16                       0                       0                       0                       0                       0
66                      18                       2                5.656854   -5.27232418783609e-08    7.43413472980038e-07    1.99226831460789e-07
67                      18                       2                2.828427   -1.83491806872173e-09    2.58843980224187e-08     1.3451709635835e-08
68                      18                       2                       0   -8.84795305981562e-10    1.10458567528753e-08    8.65484431512631e-09
69                      20                       0                5.656854   -1.37810250143046e-09    1.38160114836654e-10     2.1982247052493e-09
70                      20                       0                2.828427   -1.72712202004432e-09    2.00556738825599e-10    5.18042985723672e-09
71                      20                       0                       0                       0                       0                       0
72                      22                       2                5.656854   -7.69844249262989e-08    2.92713572903821e-07    7.73676853627287e-08
73                      22                       2                2.828427   -2.72980079916824e-09    1.05023153810206e-08    5.39458459724655e-09
74                      22                       2                       0    -9.4472198584761e-10    3.98687040509875e-09    3.10250855959464e-09
75                      24                       0                5.656854   -6.61525782197934e-10   -7.46313767400143e-12    4.65000743982613e-10
76                      24                       0                2.828427    -3.9980768336422e-10   -3.26288486693184e-13    5.06876970469805e-10
77                      24                       0                       0                       0                       0                       0
78                      26                       2                5.656854   -1.72105818261854e-08    3.46203686159202e-08     8.9444749813416e-09
79                      26                       2                2.828427   -5.93026186930535e-10     1.2419326852888e-09    6.25125925504979e-10
80                      26                       2                       0                       0                       0                       0
81                      28                       0                5.656854                       0                       0                       0
82                      28                       0                2.828427                       0                       0                       0
83                      28                       0                       0                       0                       0                       0
84                      30                       2                5.656854   -5.18668150236699e-10    7.36453663947546e-10    1.89365116946106e-10
85                      30                       2                2.828427                       0                       0                       0
86                      30                       2                       0                       0                       0                       0
87                       0                       4                5.656854    1.42868564063711e-11    3.09861430483896e-10    9.52317320745198e-11
88                       0                       4                2.828427                       0                       0                       0
89                       0                       4                       0                       0                       0                       0
90                       2                       6                5.656854    1.00670436522442e-07    9.20479194335669e-08    3.43599902195639e-08
91                       2                       6                2.828427     3.7529747127429e-09    3.39156609125365e-09    2.46123832784591e-09
92                       2                       6                       0     1.1239067189969e-09    1.04618005233815e-09    1.16329922361789e-09
93                       4                       4                5.656854    1.13644199011755e-08    1.54811611423795e-08    4.71799349268533e-09
94                       4                       4                2.828427    1.36775119171748e-08     1.8860667667207e-08    1.11329033579552e-08
95                       4                       4                       0    1.50589559331763e-10    2.10285659112979e-10    1.90793050865923e-10
96                       6                       6                5.656854    3.35586594642125e-06    4.95242779714188e-06    1.89079615583492e-06
97                       6                       6                2.828427    9.26650423434009e-08     1.3452590127393e-07    9.92875766558682e-08
98                       6                       6                       0    3.61612814660321e-08    5.14831603248679e-08     5.6431660017039e-08
99                       8                       4                5.656854    1.32501665677386e-07    3.09350854349954e-07    9.67144926694314e-08
100                       8                       4                2.828427    1.35207756179105e-07    3.12575991775803e-07    1.89224700061879e-07
101                       8                       4                       0    1.83136377173043e-09    4.21352036820129e-09    3.80250542864746e-09
102                      10                       6                5.656854    2.24545385482472e-05    6.61473055709153e-05    2.65346926101703e-05
103                      10                       6                2.828427    4.69377912071721e-07    1.35540851132743e-06    1.04285714052633e-06
104                      10                       6                       0    1.42275519434832e-07    4.00832551110202e-07    4.51789713793334e-07
105                      12                       4                5.656854    2.72167030758703e-07    1.61931854052083e-06    5.21664882196982e-07
106                      12                       4                2.828427    2.45899405957001e-07    1.42083556192276e-06    8.83594185635618e-07
107                      12                       4                       0    3.05142196995893e-09    1.72309200537674e-08    1.58250315426206e-08
108                      14                       6                5.656854    1.21370405190012e-05     0.00019020768967123    7.87762446285846e-05
109                      14                       6                2.828427    2.48576203703788e-07    3.44152996719328e-06    2.72834299915734e-06
110                      14                       6                       0    7.45078735459888e-08     9.1130201226482e-07    1.05290174081232e-06
111                      16                       4                5.656854   -1.46152635229906e-08    2.40164150264982e-06    7.82224019491286e-07
112                      16                       4                2.828427   -1.34548347327104e-08    2.05989598255814e-06    1.29411466339124e-06
113                      16                       4                       0   -1.59951828776593e-10    2.44170160543486e-08    2.26248503643679e-08
114                      18                       6                5.656854   -1.34116940365959e-05    0.000183285806558309    7.60739891735818e-05
115                      18                       6                2.828427   -2.76250912452644e-07    3.32742799512439e-06    2.63629436690218e-06
116                      18                       6                       0    -8.2367667260138e-08    8.87475727448774e-07    1.02326353825167e-06
117                      20                       4                5.656854   -2.65102777015989e-07    1.54476885100474e-06    4.99102326230878e-07
118                      20                       4                2.828427    -2.4043242885608e-07    1.35601388623943e-06    8.43215834575511e-07
119                      20                       4                       0     -3.007290288453e-09    1.65052928945887e-08    1.51365129252614e-08
120                      22                       6                5.656854   -2.13733742668365e-05    6.26641606746074e-05    2.51716003423718e-05
121                      22                       6                2.828427   -4.46904040942228e-07    1.28834762754539e-06    9.88420540609406e-07
122                      22                       6                       0   -1.36307480970416e-07    3.84924908979476e-07     4.3130517670586e-07
123                      24                       4                5.656854   -1.25644898096567e-07    2.92430326122687e-07    9.15972028832468e-08
124                      24                       4                2.828427   -1.28147063884125e-07    2.95828932521398e-07    1.78779036775117e-07
125                      24                       4                       0   -1.75366731676518e-09    4.09048407634909e-09    3.66277977442003e-09
126                      26                       6                5.656854   -3.16477214992324e-06     4.6792459287185e-06    1.78569939141415e-06
127                      26                       6                2.828427   -8.77918453167124e-08    1.27834700054756e-07    9.38440606103732e-08
128                      26                       6                       0   -3.43067252356748e-08    4.93931870087529e-08    5.36686484343374e-08
129                      28                       4                5.656854    -1.0715280939752e-08    1.46294552656709e-08    4.46661060073925e-09
130                      28                       4                2.828427   -1.29508864147589e-08    1.78838622976067e-08    1.05278564409117e-08
131                      28                       4                       0   -1.38105855052667e-10    1.91740660844428e-10    1.74397147670503e-10
132                      30                       6                5.656854   -9.56744894593985e-08    8.81294405778096e-08    3.28697183065296e-08
133                      30                       6                2.828427   -3.57149567259974e-09    3.24485558270727e-09    2.34316120054222e-09
134                      30                       6                       0     -1.004266129552e-09    9.44350959790263e-10    1.04774191414225e-09
135                       0                       8                5.656854    3.62347655794186e-10    1.27885555421738e-08    6.11883070180854e-09
136                       0                       8                2.828427    4.43594831208981e-10    1.44821909724928e-08    1.36021497869287e-08
137                       0                       8                       0    1.24355370707286e-11    1.50876225825347e-10    2.25319047931034e-10
138                       2                      10                5.656854     3.2444711715004e-06     1.6293665572604e-06    1.12424362613224e-06
139                       2                      10                2.828427    9.13612655109742e-08    4.63562027837474e-08    6.10762474427688e-08
140                       2                      10                       0    3.66376618212606e-08    1.86633614529483e-08    3.59412584241607e-08
141                       4                       8                5.656854    1.04048752444037e-06    9.20456368320639e-07    4.53906795673988e-07
142                       4                       8                2.828427    8.64861524113645e-07    7.60557689220892e-07     7.2131623029246e-07
143                       4                       8                       0     1.0056030726272e-08    8.77652141900626e-09     1.2242984243429e-08
144                       6                      10                5.656854    0.000283517263229152    0.000240458676848346    0.000175393724505321
145                       6                      10                2.828427    4.01766127660531e-06    3.36809810320826e-06     4.6393130394594e-06
146                       6                      10                       0    8.82336697894851e-07    7.30454459559824e-07    1.44581227007825e-06
147                       8                       8                5.656854    2.38324697322798e-05    3.99095256235988e-05    2.05994649079756e-05
148                       8                       8                2.828427    1.24549471886131e-05     2.0044877228969e-05    1.98064632676648e-05
149                       8                       8                       0    9.42462741538161e-08     1.4644398022254e-07    2.10814554213897e-07
150                      10                      10                5.656854     0.00294707349943456     0.00579222575442933     0.00461582711726919
151                      10                      10                2.828427    2.51293320875457e-05    4.69354308801853e-05    6.95416440147563e-05
152                      10                      10                       0     3.6215564592318e-06     6.3675881228912e-06     1.3354420271867e-05
153                      12                       8                5.656854    6.62097983792785e-05    0.000300093160339247    0.000168025555519924
154                      12                       8                2.828427    2.50668873559341e-05     0.00010821925268849    0.000113915966703854
155                      12                       8                       0    1.49417957185983e-07    6.08187859634173e-07     9.1874872452619e-07
156                      14                      10                5.656854    0.000948335731211861      0.0153737613515919       0.013492764225073
157                      14                      10                2.828427    9.27886966559764e-06    0.000114382546928916    0.000184087614006776
158                      14                      10                       0    1.50154723916025e-06    1.35499622525773e-05    3.01392565892918e-05
159                      16                       8                5.656854   -4.43339562531378e-06    0.000434529771221513    0.000249558357062023
160                      16                       8                2.828427   -1.56196710416998e-06    0.000151617125781174    0.000163214783406643
161                      16                       8                       0   -7.48743166349227e-09    8.33055199921955e-07    1.28126713359091e-06
162                      18                      10                5.656854    -0.00110232763513086      0.0150932404686444       0.013201074108939
163                      18                      10                2.828427   -1.04630750283995e-05    0.000111241620698579    0.000177504655186905
164                      18                      10                       0   -1.62010128819822e-06    1.33756145997461e-05      2.947274516828e-05
165                      20                       8                5.656854   -6.30967629947666e-05     0.00028474752777656    0.000159616870571886
166                      20                       8                2.828427   -2.40899707003287e-05    0.000103421707709363    0.000108343980451719
167                      20                       8                       0    -1.4559857603725e-07    5.89316708215136e-07    8.83332931826418e-07
168                      22                      10                5.656854    -0.00282716429648688      0.0056002956486178     0.00441622652952467
169                      22                      10                2.828427   -2.41968483441887e-05    4.58711366349268e-05    6.68453179038767e-05
170                      22                      10                       0    -3.5249693993976e-06    6.32271710642083e-06    1.30275018265371e-05
171                      24                       8                5.656854   -2.25143101978712e-05    3.76997391839052e-05    1.93917128801603e-05
172                      24                       8                2.828427   -1.18776857744383e-05    1.91984107889341e-05     1.8799079105603e-05
173                      24                       8                       0   -9.10162578942455e-08    1.42503201259019e-07    2.02866753723879e-07
174                      26                      10                5.656854   -0.000269826524343804    0.000231874636518927    0.000167207236255825
175                      26                      10                2.828427   -3.87975715955649e-06    3.29789343951001e-06    4.46379869915338e-06
176                      26                      10                       0   -8.65298107815844e-07    7.27289388003153e-07    1.41307273370959e-06
177                      28                       8                5.656854    -9.8900082384414e-07    8.82414201394072e-07     4.3327713532996e-07
178                      28                       8                2.828427    -8.2605882058946e-07    7.32818059304523e-07    6.88461243501598e-07
179                      28                       8                       0   -9.70607129475849e-09    8.55554837531812e-09    1.17938541128041e-08
180                      30                      10                5.656854   -3.14993121610926e-06    1.60428758621418e-06    1.09580235225218e-06
181                      30                      10                2.828427   -8.89851755649959e-08    4.58616846601944e-08    5.94944237347989e-08
182                      30                      10                       0   -3.60719066348209e-08    1.86592270133481e-08    3.52998523445841e-08
183                       0                      12                5.656854    1.01171355034304e-09     5.9972355195511e-08    6.41842448940931e-08
184                       0                      12                2.828427     6.6319303966864e-10    6.69461533730682e-08    1.35604355639529e-07
185                       0                      12                       0   -1.58747171773801e-10    9.24015589325895e-10    2.74847869708552e-09
186                       2                      14                5.656854    1.83936401071852e-05    2.51476114142083e-06    6.39371432564801e-06
187                       2                      14                2.828427    4.43356492370777e-07    6.43748784690863e-08    2.97404514219393e-07
188                       2                      14                       0     1.5379620967944e-07    2.35155011097658e-08    1.50408785096674e-07
189                       4                      12                5.656854    2.33065417051029e-05    8.68043730791995e-06    1.04261520878202e-05
190                       4                      12                2.828427    1.27767224526705e-05    4.94205702439739e-06    1.08965927337016e-05
191                       4                      12                       0    1.00950183453121e-07    4.03378914815136e-08    1.24966858811955e-07
192                       6                      14                5.656854     0.00305800032981974    0.000597774786577034     0.00193157532411746
193                       6                      14                2.828427    2.85130602826234e-05    6.35317058620807e-06    3.37016921830204e-05
194                       6                      14                       0    4.37842105827003e-06    1.06566986701959e-06    7.34339234885412e-06
195                       8                      12                5.656854     0.00131004482945942     0.00100987237400401      0.0013429063118937
196                       8                      12                2.828427    0.000285099147043296    0.000215875372918466     0.00051493369778512
197                       8                      12                       0    1.13051445074989e-06     8.4043796762962e-07    2.75408369505624e-06
198                      10                      14                5.656854       -0.01524295058864    -0.00375128272328531      -0.127901216179918
199                      10                      14                2.828427    0.000182087740730727    0.000103887951242797    0.000623386664847236
200                      10                      14                       0    1.72446214131339e-05    9.65320612882109e-06    7.24683333709153e-05
201                      12                      12                5.656854     0.00174085686889058     0.00527760136024106     0.00746677823954828