ITEM: TIMESTEP
0
ITEM: NUMBER OF ATOMS
422
ITEM: BOX BOUNDS ff ff ff
0.0000000000000000e+00 2.3200000000000000e+02
0.0000000000000000e+00 2.3200000000000000e+02
0.0000000000000000e+00 2.3200000000000000e+02
ITEM: ATOMS id xu yu zu fx fy fz
1        113.145932193839        116.483520815677              108.656854    -0.00830145016099525     -0.0175174695762721      0.0201899731209187
2        118.827484840071        116.489226241634              108.656854     0.00561525848367293     -0.0180959131376488      0.0217601360255813
3        117.402344993917        116.487795112765              108.656854    -0.00441603089995667     -0.0153098309687897      0.0293335309648657
4        114.571072038949        116.484951942936              108.656854      0.0100629137115964     -0.0155411115027208      0.0302136147526907
5        116.701075167769        115.249724850164              108.656854    -0.00626628729865682      0.0142438162532082      0.0182014115444451
6        115.274826990867        115.248292608712              108.656854      0.0142916722639398      0.0147651262307436      0.0193869318425319
7        115.272341865028        117.723022205388              108.656854      0.0343060036094144    -0.00335316436422818      0.0592980735734856
8        116.698590041422        117.724454446583              108.656854     -0.0258168756798138    -0.00306132226830113      0.0559622015570639
9        114.517756920757        114.048446241175              108.656854      0.0345562349576048    -0.00281924600868671       0.181404657177643
10        117.460553482731        114.051401403886              108.656854     -0.0539758046583282    -0.00264935842238186       0.179541296203333
11        114.512863550773        118.921345651893              108.656854      0.0205006739918583      0.0300387042725414       0.100567145363932
12        117.455660110655        118.924300814179              108.656854     -0.0391445629246616      0.0296721059084152      0.0986933248906896
13        113.127311260236        114.062444587898              108.656854     -0.0337006133975722    -0.00430070308486725       0.126271189041614
14        113.122448808114        118.904554762274              108.656854     -0.0170205394479511      0.0235424832995983      0.0684581646461197
15        118.850968226168        114.068192293572              108.656854      0.0176600585554785    -0.00393308504889166       0.131420423101334
16        118.846105771496         118.91030247058              108.656854     0.00136449982692828      0.0250246905320577      0.0726154311998842
17        112.426795838139         117.69431994364              108.656854     -0.0144337479247318      0.0043779146990904      0.0320340212485604
18         112.42922905874        115.271279815063              108.656854    -0.00162004992698951     0.00582693898589876      0.0109078360024594
19        119.546621196692        115.278427112272              108.656854      0.0117604809323146     0.00598379819706357     0.00992751662607634
20        119.544187975028         117.70146724296              108.656854      0.0254125104801658     0.00385600869078098      0.0327978412049854
21        120.955135022624        115.324435085822              108.656854        0.14430031585475       0.122901061952734      0.0313432160003938
22        120.952791362251        117.658288229576              108.656854       0.117666264504232     -0.0335841556312498      0.0354062155345752
23        111.020625673161        115.314458829493              108.656854     -0.0260341418035865       0.125246625292837       0.054162855192194
24        111.018282013145        117.648311972274              108.656854    -0.00101713942612487      -0.028223863446614      0.0601315171488898
25        121.586726460739        116.491997078118              108.656854      -0.058298657113483     -0.0509760933893557      0.0182763184928999
26        110.386690574472        116.480749978664              108.656854    -0.00791759094933954     -0.0529621174961554      0.0038911994927442
27        121.609196045824        118.685922140926              108.656854      -0.170187000064709    -0.00578754981231696       0.141256856733527
28          121.6136022867        114.298121569695              108.656854       -0.17929144280673     -0.0260347017094282       0.169948073475832
29        110.359814750727        118.674625487296              108.656854      0.0234133480845187     -0.0161391414706786       0.112732878874034
30         110.36422099026         114.28682491673              108.656854      0.0288249984751982     -0.0275052207779574       0.139263540953892
31        112.599866822243        113.115454800093              108.656854     -0.0171654267382683       0.028197417898277     0.00254330540568555
32        112.593103500599        119.850483321209              108.656854     -0.0150603344785883      0.0255723680419353      0.0120866756704521
33        119.380313532952        113.122263734631              108.656854      0.0597089214797059      0.0285647739527538    -0.00352292000122891
34        119.373550207142        119.857292260389              108.656854      0.0553028721807945      0.0234619009750926     0.00607775514142939
35        114.962286572867         113.06896056388              108.656854     0.00632611270307076      0.0158193272247354    -0.00418680682800417
36        114.955425108682        119.901722146141              108.656854     0.00368274349255442       0.018724851100748    -0.00300599443731955
37        117.017991924022        113.071024909739              108.656854      0.0204517153380844      0.0159555459946201    -0.00516076336649996
38        117.011130457531        119.903786490585              108.656854      0.0217790184412643      0.0182646081547741    -0.00353973369882227
39                     100                     100              105.656854       0.212146196986502       0.213883129207354      -0.975711992734943
40                     100                     100              102.828427       0.432023840665601       0.430497930928928   -0.000331402751707116
41                     100                     100                     100       0.212143904751347       0.213397606421206       0.976273653517561
42                     102                     102              105.656854      -0.344453410024448      -0.347394158422524      -0.277906778526372
43                     102                     102              102.828427     -0.0509120316939181     -0.0484375162879062     0.00059465575404744
44                     102                     102                     100      -0.344490888494901      -0.346409591661609       0.276933186623027
45                     104                     100              105.656854      0.0958264604251206       0.959947070860395      -0.808977795367511
46                     104                     100              102.828427     -0.0638024211969988        0.72677981206584   -0.000223970944650802
47                     104                     100                     100      0.0961852227636019       0.959402944508545       0.809328581609981
48                     106                     102              105.656854      -0.149240910982129       -0.51465907300638      -0.381375643411072
49                     106                     102              102.828427       0.142317277814016      0.0663919199499224    0.000281720662776477
50                     106                     102                     100      -0.150192431299407      -0.513694569846826       0.380971598755076
51                     108                     100              105.656854       0.109742934088681        1.06001021970997      -0.801915422304767
52                     108                     100              102.828427       -0.11167950216714       0.639920740228603    0.000257730604498332
53                     108                     100                     100       0.110680618511758         1.0600111014429       0.801437430786463
54                     110                     102              105.656854      -0.143590094357515      -0.581843962730932      -0.373873486300433
55                     110                     102              102.828427       0.148200363037377       0.134782807806071   -0.000900744737126758
56                     110                     102                     100      -0.145662990326186      -0.582594209167022       0.375425645548509
57                     112                     100              105.656854       0.131929423133864        1.10860950941853      -0.810590829207157
58                     112                     100              102.828427       -0.13563168797936       0.589342568529191     0.00104933269778009
59                     112                     100                     100       0.132930041458568         1.1099050303235       0.808799062277143
60                     114                     102              105.656854      -0.164123349264641      -0.619361401716203       -0.36163840947859
61                     114                     102              102.828427       0.168931409379583       0.175105361086247    -0.00232559434524329
62                     114                     102                     100      -0.165363549338745      -0.622784464513866       0.365496294783707
63                     116                     100              105.656854       0.166588445338941        1.14429127673275      -0.821083965463941
64                     116                     100              102.828427      -0.170771780514696       0.552051856420889     0.00147620865535927
65                     116                     100                     100       0.166587402246129        1.14636949797906       0.818592829581048
66                     118                     102              105.656854      -0.209174178840823      -0.651559627064636       -0.34820550604749
67                     118                     102              102.828427       0.214157911493807       0.208351321653466    -0.00232358661206878
68                     118                     102                     100      -0.207930318629493      -0.654977040260529       0.352060162791796
69                     120                     100              105.656854       0.222949879621106        1.18269221082343      -0.835158800026212
70                     120                     100              102.828427      -0.228456514069023       0.512835437771429     0.00104860229707081
71                     120                     100                     100       0.221950179753292        1.18398523101355        0.83336821732605
72                     122                     102              105.656854      -0.288263952713197      -0.688013665073376      -0.330344319820628
73                     122                     102              102.828427       0.293234272317517       0.244346891380198   -0.000900037271455841
74                     122                     102                     100      -0.286197362801741      -0.688760924380668       0.331895252615455
75                     124                     100              105.656854       0.326135111446515        1.23665255393985      -0.852113424597106
76                     124                     100              102.828427      -0.322835013578595       0.459536979388257    0.000258887613237602
77                     124                     100                     100        0.32520062256618        1.23665476942026       0.851633597517102
78                     126                     102              105.656854      -0.461520396414784      -0.727456744280359      -0.331944809515241
79                     126                     102              102.828427       0.397096474922585        0.28156734191196     0.00027759077652189
80                     126                     102                     100      -0.460573321856567       -0.72649927911782       0.331547265052539
81                     128                     100              105.656854       0.708203933693862        1.34059317494585      -0.754777567411633
82                     128                     100              102.828427      -0.280868134191955       0.396161462273267    -0.00022106715811256
83                     128                     100                     100       0.707846283127987        1.34005327938994       0.755123613318345
84                     130                     102              105.656854       -1.34063227429012      -0.708566607974578      -0.755348310104941
85                     130                     102              102.828427       -0.39584954173861       0.280904930461142    0.000589426477539516
86                     130                     102                     100       -1.34059392201385      -0.707589456636677       0.754383189963718
87                     100                     104              105.656854       0.958960357176207      0.0998812477087906      -0.808504062346155
88                     100                     104              102.828427         0.7277518292117     -0.0671249939473581   -0.000937648458808219
89                     100                     104                     100       0.958504251477044      0.0986696264353586        0.81005937758025
90                     102                     106              105.656854      -0.513481142104628      -0.156780178749058      -0.382584644714092
91                     102                     106              102.828427      0.0650693540532396       0.148009703738119     0.00191946762743624
92                     102                     106                     100      -0.512412162462252      -0.154047815482484       0.379497814673526
93                     104                     104              105.656854       0.247106006582186        0.25249975136812      -0.388678876355705
94                     104                     104              102.828427      -0.179947515950274      -0.184182748714939     -0.0011221451844172
95                     104                     104                     100       0.247338342825064       0.250353140603166       0.390453922693194
96                     106                     106              105.656854      -0.232982538780969      -0.243988724831211      -0.504167072541643
97                     106                     106              102.828427       0.225268296487571       0.232933030909396     0.00217799125351204
98                     106                     106                     100      -0.234170564748791      -0.238965559680515       0.500739201281799
99                     108                     104              105.656854       0.173459145183503       0.338078688985142      -0.375399341546112
100                     108                     104              102.828427      -0.177373450260453      -0.268470799477591   -0.000123056719171254
101                     108                     104                     100       0.176190552073252       0.336594833303629       0.375492201256747
102                     110                     106              105.656854      -0.182879308720465      -0.292206814715445      -0.489829335240175
103                     110                     106              102.828427       0.192573712881842       0.285198029702745    -0.00124400922995767
104                     110                     106                     100      -0.191023059719274      -0.291628333759811         0.4919733059004
105                     112                     104              105.656854       0.167656691595889       0.379657172278506      -0.390621702009033
106                     112                     104              102.828427      -0.174471946163533      -0.314541249506376     0.00278330303816555
107                     112                     104                     100       0.171861614953278       0.383404282757297       0.386007679639415
108                     114                     106              105.656854       -0.18915837118912      -0.309283626095934      -0.468333968227878
109                     114                     106              102.828427       0.197876628044149       0.312092045507074    -0.00757850394200504
110                     114                     106                     100        -0.1952117354404      -0.322296601716193       0.481112086101003
111                     116                     104              105.656854       0.198198197250259       0.406343092026372      -0.405730084067878
112                     116                     104              102.828427      -0.203402869485969      -0.344555231603261     0.00466212618578892
113                     116                     104                     100       0.198189414183917       0.413999005747678       0.398091543939334
114                     118                     106              105.656854      -0.240077615526383      -0.331524945785983      -0.452442091302904
115                     118                     106              102.828427       0.242954199024538       0.335004805391372    -0.00756292829983935
116                     118                     106                     100      -0.233994252615209      -0.344493546055861       0.465192521845296
117                     120                     104              105.656854       0.259757393898126       0.436329912956251      -0.421342761979332
118                     120                     104              102.828427      -0.264521510169644      -0.373050475570399     0.00277648011291224
119                     120                     104                     100       0.255557374397023       0.440058124529869       0.416739948029782
120                     122                     106              105.656854      -0.317349656124641      -0.362197084444067       -0.43805748089743
121                     122                     106              102.828427       0.319364065360074       0.357458585250835    -0.00123695495788418
122                     122                     106                     100      -0.309250098191256        -0.3616007654748       0.440189796617656
123                     124                     104              105.656854       0.367775219341648       0.463378178614416      -0.438723147682993
124                     124                     104              102.828427      -0.362293097652282      -0.397678053586455   -0.000119318145143642
125                     124                     104                     100       0.365059301772423       0.461901978436966       0.438810166865891
126                     126                     106              105.656854      -0.466248690792596      -0.368272039616939      -0.441077553033651
127                     126                     106              102.828427       0.401068570387987       0.361164676442323      0.0021604140244893
128                     126                     106                     100       -0.46507192576034      -0.363286525088285       0.437678588185046
129                     128                     104              105.656854        0.72806417506586       0.461990048051845      -0.330825405132002
130                     128                     104              102.828427      -0.282649501948787      -0.396865098885195    -0.00111240518135742
131                     128                     104                     100       0.727832320462285       0.459859914972325       0.332585098993339
132                     130                     106              105.656854       -1.23691261215238      -0.328032269009036      -0.853419297030371
133                     130                     106              102.828427      -0.458614439293262       0.323744207209343     0.00190380083288213
134                     130                     106                     100        -1.2379716379117      -0.325322076770672       0.850357216052053
135                     100                     108              105.656854        1.06263824579687       0.116579982457323      -0.800106165957341
136                     100                     108              102.828427       0.638427659411232      -0.116897145754019    -0.00227691551647227
137                     100                     108                     100        1.06054424651623       0.114245121454155        0.80380965950912
138                     102                     110              105.656854      -0.589098824233359       -0.15567447288273      -0.378704381164612
139                     102                     110              102.828427       0.138324192136353       0.156408186452107     0.00493614160008347
140                     102                     110                     100      -0.583658019527428      -0.150596371359463       0.370786647420988
141                     104                     108              105.656854       0.337398926010571       0.188855013711834      -0.371728749896599
142                     104                     108              102.828427      -0.266730920638356      -0.187465518059754     -0.0042483161642485
143                     104                     108                     100       0.334684423942074       0.182093534775962       0.378542843493652
144                     106                     110              105.656854      -0.295516145235185       -0.21742337661457        -0.5037879490345
145                     106                     110              102.828427       0.282730604142775       0.210101860198716     0.00984117709978964
146                     106                     110                     100      -0.288508300149481      -0.199368464962569       0.485846110722771
147                     108                     108              105.656854       0.221979886962143       0.247780994386594      -0.360688604670714
148                     108                     108              102.828427      -0.229179730170734      -0.243521990644399    -0.00387903374288296
149                     108                     108                     100       0.228206261393458       0.235625594131253       0.367751517067631
150                     110                     110              105.656854      -0.186640640552492      -0.251779596565463      -0.485090764099319
151                     110                     110              102.828427       0.217442877390535       0.242426547074341     0.00327044324493568
152                     110                     110                     100      -0.222175604863858      -0.232382369290243       0.475477870927427
153                     112                     108              105.656854       0.180506625785499       0.257111599373133      -0.391882073371001
154                     112                     108              102.828427      -0.199687194444641      -0.269279698953078     0.00749247540301042
155                     112                     108                     100       0.201692858848171       0.267201034782116       0.378285812339162
156                     114                     110              105.656854      -0.183615534674138      -0.192949222813652      -0.402056604800511
157                     114                     110              102.828427       0.210385402695507       0.246250325573071      -0.024196665871359
158                     114                     110                     100      -0.213710406354086      -0.249098447798584       0.469125153284851
159                     116                     108              105.656854       0.220253221763366       0.255151711551248      -0.420331457519079
160                     116                     108              102.828427      -0.226110562256037      -0.282752207775019      0.0166051094828591
161                     116                     108                     100       0.220187038525562         0.2861139487561       0.389745985359527
162                     118                     110              105.656854      -0.279349751603776      -0.204201949411066      -0.384967696728947
163                     118                     110              102.828427        0.26503422793203       0.257607293406245     -0.0241055759574353
164                     118                     110                     100      -0.248985488709058      -0.260070908186322        0.45174794658556
165                     120                     108              105.656854       0.294503661650711       0.290848449899538      -0.426603852230618
166                     120                     108              102.828427      -0.288509535918149      -0.303967847341183      0.0074427981638478
167                     120                     108                     100        0.27336130402839        0.30079460817574       0.413108253571126
168                     122                     110              105.656854      -0.349693830364535      -0.285400767974575      -0.428731009294797
169                     122                     110              102.828427       0.332141791976686       0.277013138959444     0.00331148166797287
170                     122                     110                     100      -0.314578551485368      -0.265878432273951       0.419041809711832
171                     124                     108              105.656854        0.37486268723029        0.31733617894156      -0.433069734284177
172                     124                     108              102.828427      -0.367767235772743      -0.315410032143325     -0.0038577560840763
173                     124                     108                     100       0.368713804496793       0.305255228059422       0.440079148365651
174                     126                     110              105.656854      -0.439952603301574      -0.273172082509743      -0.432315596125207
175                     126                     110              102.828427       0.380904656114226        0.26780124492346     0.00976629046674826
176                     126                     110                     100      -0.446921827266191      -0.255276985664536       0.414549032659685
177                     128                     108              105.656854       0.689128934682279       0.292928545669218      -0.327029697784826
178                     128                     108              102.828427      -0.247043379377559      -0.294972248573361    -0.00421330453985261
179                     128                     108                     100       0.691820523716517       0.286225856051885       0.333785518190477
180                     130                     110              105.656854       -1.18039736063268      -0.228005286051938      -0.838675530229895
181                     130                     110              102.828427      -0.512428307184551       0.231148784794762     0.00489557510645601
182                     130                     110                     100        -1.1857881078719      -0.222969459681974       0.830823536502485
183                     100                     112              105.656854        1.11801907554848       0.138445091708829      -0.806568274403465
184                     100                     112              102.828427       0.583574455535257      -0.140335881264845    -0.00424846409326538
185                     100                     112                     100        1.11270151113404       0.135932464363303       0.813411819567463
186                     102                     114              105.656854       -0.63873626789271      -0.171366917009869      -0.371284666620011
187                     102                     114              102.828427       0.184990664876222       0.173581022310363      0.0085077875000561
188                     102                     114                     100      -0.626612513676277      -0.167972884829364       0.357513715241874
189                     104                     112              105.656854       0.399804408633844       0.188287362744996      -0.375789839968839
190                     104                     112              102.828427      -0.321789402367744      -0.186098468333956     -0.0110692664511103
191                     104                     112                     100       0.384848012927605       0.177775910673626       0.394754433057876
192                     106                     114              105.656854      -0.355699317225439      -0.212629398091112      -0.516024204110853
193                     106                     114              102.828427       0.321908414577868       0.209064393320193      0.0225991342489141
194                     106                     114                     100      -0.322587571502464      -0.200056760386075       0.466742140765607
195                     108                     112              105.656854       0.275559138206626       0.258227633282453       -0.32240890741944
196                     108                     112              102.828427      -0.262552844228924       -0.22408656881794     -0.0194586604010551
197                     108                     112                     100        0.26155996920644       0.211149883594049       0.388823580354266
198                     110                     114              105.656854      -0.153350276156676      -0.230027926396059      -0.711123681676154
199                     110                     114              102.828427       0.224797191812957       0.227054161602602      0.0161850864877318
200                     110                     114                     100      -0.239734808889778      -0.220141254118865       0.456508925537949
201                     112                     112              105.656854       0.112388823953082       0.226934010742812      -0.431253131745052