ITEM: TIMESTEP
0
ITEM: NUMBER OF ATOMS
422
ITEM: BOX BOUNDS ff ff ff
0.0000000000000000e+00 2.3200000000000000e+02
0.0000000000000000e+00 2.3200000000000000e+02
0.0000000000000000e+00 2.3200000000000000e+02
ITEM: ATOMS id xu yu zu fx fy fz
1        113.154775380892        115.992364002731        108.665697187054       -1146.15926350569       -1722.75002973563        134.352956382207
2        118.828536648911        115.990278050474         108.65790580884       -1047.92384330397        2930.48415467624       -141.848735577453
3        117.380583195867        115.966033314715         108.63509220195        686.602109140285       -1332.10257421495        30.0664527076157
4        114.562992289012        115.976872192999        108.648774250063        936.464012275851        516.983488631594       -163.544530349295
5        116.659762019207        114.708411701602        108.615540851438        2014.31856292306        1492.68820694399       -778.263503599464
6        115.279937911679        114.753403529524        108.661964920812       -3622.17418113195       -2030.84820958903        453.943483364788
7        115.270803466906        117.221483807267        108.655315601879       -2208.70745463026           329.025230612        12.2315710081174
8        116.667081708645        117.192946113806        108.625345667224        2786.23535754352        2567.53968652217       -317.703125484657
9        114.480094396346        113.510783716764        108.619191475589       -16006.6185761622        34126.3640312806       -3518.87501234669
10        117.500651513423        113.591499434578        108.696952030692        -5316.3709595688        4078.42227780895        1683.25068933543
11        114.558809761816        118.467291862936        108.702800211043       -35088.4145995408       -82830.0568284283        7424.22978486647
12        117.479976603521        118.448617307045        108.681170492866         15787.896232672       -33564.0982770891        2850.03402012932
13        113.087255705985        113.522389033647        108.616798445749        30239.8397590993         59590.296713341       -4759.44875534147
14          113.0752905003         118.35739645446        108.609695692186        13929.8095475505       -2629.98898506139       -2049.41166189047
15        118.828177164116         113.54540123152        108.634062937948       -2618.41365226193        20397.7478113548          -1315.50653001
16        118.894394336137        118.458591035221         108.70514256464       -48885.4352701763       -94034.9936105388        10405.1416765313
17        112.445836521798        117.213360627299        108.675894683659       -3572.51135217378       -9766.88707903494        814.969817040737
18        112.405842784606         114.74789354093        108.633467725867        16.6342968613099        2272.33329265162        48.8385411489366
19        119.566618284231        114.798424199811        108.676851087539       -352.399953573687       -2519.50560242259        203.392838698571
20        119.591335720147        117.248614988078        108.704001745119       -1885.57080760489       -2992.01478066637        192.830450014153
21        120.980377666229        114.849677729427        108.682096643604       -5401.36762556818        7974.69640377081        607.352512859806
22        120.985402196958        117.190899064283        108.689464834708       -12714.1923775807       -23402.5128197692        1082.71310109546
23        110.981540513026        114.775373669358        108.617768839865        6508.29044224083        12080.4098245323       -301.232262443319
24        111.059634713881        117.189664673009        108.698206700735        6751.59222163423        -13116.229690002        1040.27008451945
25        121.600156748431        116.005427365809        108.670284287692         6173.3374722626        1329.86380097345       -150.078546789808
26        110.412192845348        116.006252249541        108.682356270876       -4429.16574913308       -222.801460544658        163.786586662094
27        121.604038221471        118.180764316574        108.651696175647        17672.7897838126        28273.2865019949       -1078.72241933671
28        121.600207810226        113.784727093221        108.643459523526         8302.0600271698       -14260.4526320208       -517.295451760072
29        110.353723813922         118.16853455049        108.650763063194       -12597.2668853816        17467.9268906403       -846.434509236801
30        110.325970375093        113.748574301562        108.618603384832       -10369.9389853125       -16239.4191427205        13.0953506103497
31        112.622466799359         112.63805477721        108.679453977117       -34579.0606544877       -65789.1794371332        4660.98925645029
32        112.598500538693        119.355880359302        108.662251038093       -8584.61870684311        17977.0714471769         945.88059446251
33         119.37667553024         112.61862573192        108.653215997288        14626.3619763259       -24712.5156384232        510.503446088697
34        119.333989302642        119.317731355889          108.6172930955        51498.1223094275        100645.359145015        -10290.876646944
35        115.007228026986        112.613902017999        108.701795454119        21877.6877120001       -37224.9153972783        3428.25617235465
36        114.928403590167        119.374700627626        108.629832481485        35700.7230480895        87649.3634124551       -7047.77145199189
37        116.993010866084        112.546043851802        108.631872942063       -4566.51179315541       -9403.62181871142       -585.070782200917
38        116.963903580098        119.356559613152        108.609627122567       -20515.9421799325        36095.0316930025       -2844.04546102797
39                     100                     100              105.656854                       0                       0                       0
40                     100                     100              102.828427                       0                       0                       0
41                     100                     100                     100                       0                       0                       0
42                     102                     102              105.656854                       0                       0                       0
43                     102                     102              102.828427                       0                       0                       0
44                     102                     102                     100                       0                       0                       0
45                     104                     100              105.656854                       0                       0                       0
46                     104                     100              102.828427                       0                       0                       0
47                     104                     100                     100                       0                       0                       0
48                     106                     102              105.656854                       0                       0                       0
49                     106                     102              102.828427                       0                       0                       0
50                     106                     102                     100                       0                       0                       0
51                     108                     100              105.656854                       0                       0                       0
52                     108                     100              102.828427                       0                       0                       0
53                     108                     100                     100                       0                       0                       0
54                     110                     102              105.656854                       0                       0                       0
55                     110                     102              102.828427                       0                       0                       0
56                     110                     102                     100                       0                       0                       0
57                     112                     100              105.656854                       0                       0                       0
58                     112                     100              102.828427                       0                       0                       0
59                     112                     100                     100                       0                       0                       0
60                     114                     102              105.656854                       0                       0                       0
61                     114                     102              102.828427                       0                       0                       0
62                     114                     102                     100                       0                       0                       0
63                     116                     100              105.656854                       0                       0                       0
64                     116                     100              102.828427                       0                       0                       0
65                     116                     100                     100                       0                       0                       0
66                     118                     102              105.656854                       0                       0                       0
67                     118                     102              102.828427                       0                       0                       0
68                     118                     102                     100                       0                       0                       0
69                     120                     100              105.656854                       0                       0                       0
70                     120                     100              102.828427                       0                       0                       0
71                     120                     100                     100                       0                       0                       0
72                     122                     102              105.656854                       0                       0                       0
73                     122                     102              102.828427                       0                       0                       0
74                     122                     102                     100                       0                       0                       0
75                     124                     100              105.656854                       0                       0                       0
76                     124                     100              102.828427                       0                       0                       0
77                     124                     100                     100                       0                       0                       0
78                     126                     102              105.656854                       0                       0                       0
79                     126                     102              102.828427                       0                       0                       0
80                     126                     102                     100                       0                       0                       0
81                     128                     100              105.656854                       0                       0                       0
82                     128                     100              102.828427                       0                       0                       0
83                     128                     100                     100                       0                       0                       0
84                     130                     102              105.656854                       0                       0                       0
85                     130                     102              102.828427                       0                       0                       0
86                     130                     102                     100                       0                       0                       0
87                     100                     104              105.656854                       0                       0                       0
88                     100                     104              102.828427                       0                       0                       0
89                     100                     104                     100                       0                       0                       0
90                     102                     106              105.656854                       0                       0                       0
91                     102                     106              102.828427                       0                       0                       0
92                     102                     106                     100                       0                       0                       0
93                     104                     104              105.656854                       0                       0                       0
94                     104                     104              102.828427                       0                       0                       0
95                     104                     104                     100                       0                       0                       0
96                     106                     106              105.656854                       0                       0                       0
97                     106                     106              102.828427                       0                       0                       0
98                     106                     106                     100                       0                       0                       0
99                     108                     104              105.656854                       0                       0                       0
100                     108                     104              102.828427                       0                       0                       0
101                     108                     104                     100                       0                       0                       0
102                     110                     106              105.656854                       0                       0                       0
103                     110                     106              102.828427                       0                       0                       0
104                     110                     106                     100                       0                       0                       0
105                     112                     104              105.656854                       0                       0                       0
106                     112                     104              102.828427                       0                       0                       0
107                     112                     104                     100                       0                       0                       0
108                     114                     106              105.656854                       0                       0                       0
109                     114                     106              102.828427                       0                       0                       0
110                     114                     106                     100                       0                       0                       0
111                     116                     104              105.656854                       0                       0                       0
112                     116                     104              102.828427                       0                       0                       0
113                     116                     104                     100                       0                       0                       0
114                     118                     106              105.656854                       0                       0                       0
115                     118                     106              102.828427                       0                       0                       0
116                     118                     106                     100                       0                       0                       0
117                     120                     104              105.656854                       0                       0                       0
118                     120                     104              102.828427                       0                       0                       0
119                     120                     104                     100                       0                       0                       0
120                     122                     106              105.656854                       0                       0                       0
121                     122                     106              102.828427                       0                       0                       0
122                     122                     106                     100                       0                       0                       0
123                     124                     104              105.656854                       0                       0                       0
124                     124                     104              102.828427                       0                       0                       0
125                     124                     104                     100                       0                       0                       0
126                     126                     106              105.656854                       0                       0                       0
127                     126                     106              102.828427                       0                       0                       0
128                     126                     106                     100                       0                       0                       0
129                     128                     104              105.656854                       0                       0                       0
130                     128                     104              102.828427                       0                       0                       0
131                     128                     104                     100                       0                       0                       0
132                     130                     106              105.656854                       0                       0                       0
133                     130                     106              102.828427                       0                       0                       0
134                     130                     106                     100                       0                       0                       0
135                     100                     108              105.656854                       0                       0                       0
136                     100                     108              102.828427                       0                       0                       0
137                     100                     108                     100                       0                       0                       0
138                     102                     110              105.656854                       0                       0                       0
139                     102                     110              102.828427                       0                       0                       0
140                     102                     110                     100                       0                       0                       0
141                     104                     108              105.656854                       0                       0                       0
142                     104                     108              102.828427                       0                       0                       0
143                     104                     108                     100                       0                       0                       0
144                     106                     110              105.656854                       0                       0                       0
145                     106                     110              102.828427                       0                       0                       0
146                     106                     110                     100                       0                       0                       0
147                     108                     108              105.656854                       0                       0                       0
148                     108                     108              102.828427                       0                       0                       0
149                     108                     108                     100                       0                       0                       0
150                     110                     110              105.656854                       0                       0                       0
151                     110                     110              102.828427                       0                       0                       0
152                     110                     110                     100                       0                       0                       0
153                     112                     108              105.656854                       0                       0                       0
154                     112                     108              102.828427                       0                       0                       0
155                     112                     108                     100                       0                       0                       0
156                     114                     110              105.656854                       0                       0                       0
157                     114                     110              102.828427                       0                       0                       0
158                     114                     110                     100                       0                       0                       0
159                     116                     108              105.656854                       0                       0                       0
160                     116                     108              102.828427                       0                       0                       0
161                     116                     108                     100                       0                       0                       0
162                     118                     110              105.656854                       0                       0                       0
163                     118                     110              102.828427                       0                       0                       0
164                     118                     110                     100                       0                       0                       0
165                     120                     108              105.656854                       0                       0                       0
166                     120                     108              102.828427                       0                       0                       0
167                     120                     108                     100                       0                       0                       0
168                     122                     110              105.656854                       0                       0                       0
169                     122                     110              102.828427                       0                       0                       0
170                     122                     110                     100                       0                       0                       0
171                     124                     108              105.656854                       0                       0                       0
172                     124                     108              102.828427                       0                       0                       0
173                     124                     108                     100                       0                       0                       0
174                     126                     110              105.656854                       0                       0                       0
175                     126                     110              102.828427                       0                       0                       0
176                     126                     110                     100                       0                       0                       0
177                     128                     108              105.656854                       0                       0                       0
178                     128                     108              102.828427                       0                       0                       0
179                     128                     108                     100                       0                       0                       0
180                     130                     110              105.656854                       0                       0                       0
181                     130                     110              102.828427                       0                       0                       0
182                     130                     110                     100                       0                       0                       0
183                     100                     112              105.656854                       0                       0                       0
184                     100                     112              102.828427                       0                       0                       0
185                     100                     112                     100                       0                       0                       0
186                     102                     114              105.656854                       0                       0                       0
187                     102                     114              102.828427                       0                       0                       0
188                     102                     114                     100                       0                       0                       0
189                     104                     112              105.656854                       0                       0                       0
190                     104                     112              102.828427                       0                       0                       0
191                     104                     112                     100                       0                       0                       0
192                     106                     114              105.656854                       0                       0                       0
193                     106                     114              102.828427                       0                       0                       0
194                     106                     114                     100                       0                       0                       0
195                     108                     112              105.656854                       0                       0                       0
196                     108                     112              102.828427                       0                       0                       0
197                     108                     112                     100                       0                       0                       0
198                     110                     114              105.656854                       0                       0                       0
199                     110                     114              102.828427                       0                       0                       0
200                     110                     114                     100                       0                       0                       0
201                     112                     112              105.656854                       0                       0                       0