ITEM: TIMESTEP
0
ITEM: NUMBER OF ATOMS
422
ITEM: BOX BOUNDS pp pp pp
0.0000000000000000e+00 3.2000000000000000e+01
0.0000000000000000e+00 3.2000000000000000e+01
0.0000000000000000e+00 3.2000000000000000e+01
ITEM: ATOMS id xu yu zu fx fy fz
1        13.1459321938386        15.9835208156773                11.55685    2.06121958732403e-05   -5.99146308025055e-07    -0.00179076936390057
2        18.8274848400711        15.9892262416344                11.55685   -2.03929628775544e-05   -3.92841543742372e-07    -0.00179176560632187
3         17.402344993917         15.987795112765                11.55685    1.70773473514959e-05   -4.55018985211387e-07    -0.00179976257647487
4         14.571072038949        15.9849519429358                11.55685   -1.65403900675736e-05   -5.62265341920795e-07    -0.00180058617694777
5        16.7010751677692        14.7497248501637                11.55685    2.08705752711293e-05   -2.03669648291704e-05    -0.00180975892936483
6        15.2748269908674        14.7482926087119                11.55685   -2.12589554918058e-05   -2.03986132700256e-05    -0.00181075469584752
7        15.2723418650276        17.2230222053877                11.55685   -2.12353905437845e-05    2.07671554767275e-05    -0.00180976321659171
8        16.6985900414216        17.2244544465825                11.55685    2.07748931549056e-05    2.06877856516474e-05    -0.00180868520906127
9        14.5177569207574        13.5484462411751                11.55685   -1.74338446791621e-05    1.55522296758691e-05    -0.00185184518490928
10        17.4605534827313        13.5514014038861                11.55685    1.79893443064047e-05    1.54417645855634e-05    -0.00185121668534092
11        14.5128635507729         18.421345651893                11.55685   -1.73416036797376e-05    -1.4681126134467e-05     -0.0018528518679598
12        17.4556601106552        18.4243008141789                11.55685    1.81402403751571e-05   -1.47316183946208e-05    -0.00185173286976749
13        13.1273112602358        13.5624445878976                11.55685    2.35454956418428e-05    1.46526541919964e-05    -0.00183836684193978
14        13.1224488081137        18.4045547622743                11.55685    2.36309358375227e-05   -1.37007308585425e-05    -0.00183901907500958
15         18.850968226168        13.5681922935721                11.55685   -2.33782709497142e-05      1.452399060625e-05    -0.00183946979901768
16        18.8461057714963        18.4103024705805                11.55685   -2.33664325862242e-05   -1.39142768547664e-05    -0.00184024658696693
17         12.426795838139        17.1943199436399                11.55685    1.44593843624821e-05    2.05218534393947e-05    -0.00179852289670563
18        12.4292290587396        14.7712798150634                11.55685    1.45804207953225e-05   -2.01459469102283e-05      -0.001799875906758
19        19.5466211966922        14.7784271122721                11.55685   -1.52503873764865e-05   -2.02664733700027e-05    -0.00180027859549888
20        19.5441879750283        17.2014672429596                11.55685   -1.52861238481401e-05    2.04925843837206e-05    -0.00179959333743253
21        20.9551350226241        14.8244350858224                11.55685    2.31633765060615e-05    -2.1810423223049e-05    -0.00181736290273699
22        20.9527913622507        17.1582882295758                11.55685    2.31147254994453e-05    2.19633879401151e-05    -0.00181656268322561
23        11.0206256731611        14.8144588294926                11.55685    -2.3232584285472e-05   -2.17695736175142e-05    -0.00181880729931487
24        11.0182820131454        17.1483119722736                11.55685   -2.31445081075437e-05    2.21191275324171e-05    -0.00181739697901408
25        21.5867264607395        15.9919970781177                11.55685    7.62430538300864e-06   -1.81990441054834e-07    -0.00105380165809084
26        10.3866905744716        15.9807499786644                11.55685   -7.19848780803033e-06   -4.38473318203232e-07    -0.00105417649974276
27         21.609196045824        18.1859221409264                11.55685    8.43843844098366e-06   -4.17575856260902e-06    -0.00108860886002194
28        21.6136022867001        13.7981215696947                11.55685    8.35089491306522e-06    4.52373547064475e-06    -0.00108854705540219
29        10.3598147507275        18.1746254872963                11.55685   -7.84859012736236e-06    -3.9362365036267e-06     -0.0010891782753897
30        10.3642209902605        13.7868249167297                11.55685   -7.92385147795432e-06    4.77421123194463e-06    -0.00108879147621189
31        12.5998668222426        12.6154548000933                11.55685    5.89752886590674e-06    5.99031473562578e-06   -0.000564921884608767
32        12.5931035005993        19.3504833212092                11.55685    5.87442393108792e-06   -6.19822998277152e-06   -0.000565244076011797
33        19.3803135329519        12.6222637346313                11.55685   -6.03274233531074e-06    6.04755141314337e-06   -0.000565227758445311
34        19.3735502071424         19.357292260389                11.55685   -6.09039944883497e-06   -6.18033883742669e-06   -0.000565546512236565
35        14.9622865728669        12.5689605638796                11.55685   -7.24312968924075e-06    5.99194019223176e-06   -0.000570136786690278
36         14.955425108682        19.4017221461408                11.55685    -7.2611510370521e-06   -6.21280311256292e-06   -0.000570579814580982
37        17.0179919240215        12.5710249097393                11.55685     7.2545076077119e-06    5.99223262517277e-06   -0.000569886425059205
38         17.011130457531        19.4037864905846                11.55685    7.27613176283327e-06    -6.1713180345879e-06    -0.00057008806791776
39                       0                       0                5.656854                       0                       0                       0
40                       0                       0                2.828427                       0                       0                       0
41                       0                       0                       0                       0                       0                       0
42                       2                       2                5.656854                       0                       0                       0
43                       2                       2                2.828427                       0                       0                       0
44                       2                       2                       0                       0                       0                       0
45                       4                       0                5.656854                       0                       0                       0
46                       4                       0                2.828427                       0                       0                       0
47                       4                       0                       0                       0                       0                       0
48                       6                       2                5.656854    3.34543192651822e-09    7.03099930358303e-09    3.58105123039461e-09
49                       6                       2                2.828427                       0                       0                       0
50                       6                       2                       0                       0                       0                       0
51                       8                       0                5.656854    6.59958230122401e-11    3.62184446649965e-12    8.47101582101008e-11
52                       8                       0                2.828427                       0                       0                       0
53                       8                       0                       0                       0                       0                       0
54                      10                       2                5.656854    1.47133211819416e-08    5.76702108352529e-08    3.00039520032811e-08
55                      10                       2                2.828427    1.59570518548966e-10    6.86475070488516e-10    5.37500029996155e-10
56                      10                       2                       0                       0                       0                       0
57                      12                       0                5.656854    2.52760699322861e-10    2.23041892690498e-10    8.05493198893184e-10
58                      12                       0                2.828427                       0                       0                       0
59                      12                       0                       0                       0                       0                       0
60                      14                       2                5.656854    8.87088205839508e-09    1.37960489204068e-07     7.2626473844635e-08
61                      14                       2                2.828427    1.31875080825313e-10    1.79750761472131e-09    1.42014636695461e-09
62                      14                       2                       0                       0                       0                       0
63                      16                       0                5.656854    -1.6341664123759e-12    4.92377520445825e-11    1.23493222261505e-09
64                      16                       0                2.828427                       0                       0                       0
65                      16                       0                       0                       0                       0                       0
66                      18                       2                5.656854   -9.09249008436528e-09    1.37249305127491e-07    7.22361858555665e-08
67                      18                       2                2.828427   -1.34712641564706e-10    1.78934007683338e-09    1.41339869273294e-09
68                      18                       2                       0                       0                       0                       0
69                      20                       0                5.656854   -2.54111034310519e-10    2.13486907549426e-10    8.00890033166638e-10
70                      20                       0                2.828427                       0                       0                       0
71                      20                       0                       0                       0                       0                       0
72                      22                       2                5.656854   -1.45966199703735e-08     5.6796935763911e-08    2.95343794295737e-08
73                      22                       2                2.828427   -1.58650995535274e-10    6.77233310210652e-10    5.29953102659081e-10
74                      22                       2                       0                       0                       0                       0
75                      24                       0                5.656854   -6.55060658194794e-11    2.62113096579657e-12    8.36003026634855e-11
76                      24                       0                2.828427                       0                       0                       0
77                      24                       0                       0                       0                       0                       0
78                      26                       2                5.656854   -3.27714719130986e-09    6.86332677480143e-09     3.4931692772521e-09
79                      26                       2                2.828427                       0                       0                       0
80                      26                       2                       0                       0                       0                       0
81                      28                       0                5.656854                       0                       0                       0
82                      28                       0                2.828427                       0                       0                       0
83                      28                       0                       0                       0                       0                       0
84                      30                       2                5.656854                       0                       0                       0
85                      30                       2                2.828427                       0                       0                       0
86                      30                       2                       0                       0                       0                       0
87                       0                       4                5.656854                       0                       0                       0
88                       0                       4                2.828427                       0                       0                       0
89                       0                       4                       0                       0                       0                       0
90                       2                       6                5.656854    2.01054966854914e-08    1.82247212192209e-08    1.33411929397502e-08
91                       2                       6                2.828427    1.78061618535361e-10    1.65769729128258e-10    1.85814928664727e-10
92                       2                       6                       0                       0                       0                       0
93                       4                       4                5.656854    2.27132418033511e-09    3.13829691719397e-09    1.87191726443099e-09
94                       4                       4                2.828427    7.83332537550386e-10    1.08714246322359e-09    9.96194200617331e-10
95                       4                       4                       0                       0                       0                       0
96                       6                       6                5.656854     4.8693730925263e-07    7.10976748065594e-07    5.29466361815642e-07
97                       6                       6                2.828427    5.71030209268255e-09    8.19653765840504e-09     9.0564598308393e-09
98                       6                       6                       0    5.73140062343354e-10    8.64708110195005e-10     1.3365605743577e-09
99                       8                       4                5.656854    2.18770861031925e-08    5.09995953726107e-08    3.12298411345884e-08
100                       8                       4                2.828427    9.30656036769326e-09    2.16339124853236e-08    1.96594390623331e-08
101                       8                       4                       0                       0                       0                       0
102                      10                       6                5.656854    2.38572240826898e-06    6.98693669566716e-06    5.43310351591509e-06
103                      10                       6                2.828427     2.2196742679103e-08    6.35843247795715e-08    7.19650510959228e-08
104                      10                       6                       0    3.25329214493195e-09    9.90516818431733e-09    1.50064696714802e-08
105                      12                       4                5.656854    3.89714877563392e-08    2.27237312440589e-07    1.43108303113292e-07
106                      12                       4                2.828427    1.53588058806042e-08    8.71727916047674e-08    8.06437688715734e-08
107                      12                       4                       0     2.7389076748372e-11    1.52691884596333e-10    2.05264088171589e-10
108                      14                       6                5.656854    1.31735872517185e-06    1.74864436574974e-05    1.40169481526255e-05
109                      14                       6                2.828427    1.21586940082785e-08    1.42939451381532e-07    1.65994149991857e-07
110                      14                       6                       0    1.86243546713938e-09    2.21441296175138e-08    3.42256621047516e-08
111                      16                       4                5.656854   -3.48625268470077e-10    3.33298308733012e-07    2.11939082967088e-07
112                      16                       4                2.828427    -1.3158118605165e-10    1.25054102857029e-07     1.1669730579927e-07
113                      16                       4                       0    -3.0666609552766e-13    2.84827085284452e-10    3.83324437668621e-10
114                      18                       6                5.656854   -1.35115890661627e-06    1.73978915326845e-05    1.39404449393247e-05
115                      18                       6                2.828427   -1.24398889259935e-08    1.42332538607542e-07    1.65230758690483e-07
116                      18                       6                       0   -1.90907732321596e-09    2.20675859274289e-08    3.40946623234288e-08
117                      20                       4                5.656854   -3.90418747662727e-08    2.24843371348642e-07    1.41529543284236e-07
118                      20                       4                2.828427   -1.54038008252705e-08     8.6381271634901e-08    7.98732978314769e-08
119                      20                       4                       0    -2.7518330044997e-11    1.51580862398144e-10    2.03653936330247e-10
120                      22                       6                5.656854   -2.36392166790438e-06    6.87437757145544e-06    5.34085493168233e-06
121                      22                       6                2.828427   -2.20482681071222e-08    6.27247981837106e-08    7.09346241398688e-08
122                      22                       6                       0    -3.2415319225206e-09    9.79575391110288e-09    1.48274818188134e-08
123                      24                       4                5.656854   -2.15300148927008e-08    4.99503278797177e-08    3.05645363459601e-08
124                      24                       4                2.828427   -9.18222015222486e-09    2.12450226075887e-08    1.92915334420957e-08
125                      24                       4                       0                       0                       0                       0
126                      26                       6                5.656854   -4.75920152509177e-07    6.92616508716464e-07    5.15254954230913e-07
127                      26                       6                2.828427   -5.60130489612094e-09    8.01479410409703e-09    8.84649875689229e-09
128                      26                       6                       0   -5.64568809988438e-10     8.4910377117782e-10    1.31072160230338e-09
129                      28                       4                5.656854   -2.21230256260714e-09     3.0493232060631e-09    1.81723311082906e-09
130                      28                       4                2.828427   -7.65462233495081e-10    1.05988759424086e-09    9.70235844072257e-10
131                      28                       4                       0                       0                       0                       0
132                      30                       6                5.656854   -1.94961985384659e-08    1.76454235879671e-08    1.29024253630198e-08
133                      30                       6                2.828427   -1.73281423125554e-10    1.61126344051132e-10    1.80348417853259e-10
134                      30                       6                       0                       0                       0                       0
135                       0                       8                5.656854    7.00817516797782e-11     2.4414905912958e-09    2.31489445804704e-09
136                       0                       8                2.828427    2.07119536604842e-11    7.89695890107645e-10    1.18997621263824e-09
137                       0                       8                       0                       0                       0                       0
138                       2                      10                5.656854    4.93285161811477e-07    2.53292046698953e-07    3.33504840278604e-07
139                       2                      10                2.828427    6.09860253121405e-09    3.14656342558009e-09     6.0281202595214e-09
140                       2                      10                       0     5.5585805131775e-10    2.51659672950527e-10    7.68029458792609e-10
141                       4                       8                5.656854    1.42794172167066e-07    1.26401565163483e-07    1.20581761946134e-07
142                       4                       8                2.828427    5.26883851471432e-08    4.63920404760665e-08    6.47609473846708e-08
143                       4                       8                       0    1.29905833570903e-10    1.18120083461445e-10    2.35897250425687e-10
144                       6                      10                5.656854    2.10962619082959e-05    1.78823451770524e-05    2.46509326464565e-05
145                       6                      10                2.828427    1.42943112529316e-07    1.20067924561175e-07    2.36685953247892e-07
146                       6                      10                       0    2.02970240244415e-08    1.69373718411142e-08    4.37662227246521e-08
147                       8                       8                5.656854     2.0010804800074e-06    3.25403119128704e-06    3.23791272643241e-06
148                       8                       8                2.828427    4.80695001399254e-07    7.56749736268164e-07    1.09093954488767e-06
149                       8                       8                       0    2.13792767959856e-09    3.31423719978111e-09    6.37367437849351e-09
150                      10                      10                5.656854    0.000125717947002689    0.000240688536398806    0.000357253313964802
151                      10                      10                2.828427    5.62786252746822e-07    1.01634010091426e-06    2.12302159253231e-06
152                      10                      10                       0    6.34414014349595e-08    1.10327547924603e-07    2.93447231413749e-07
153                      12                       8                5.656854    3.85713212418211e-06    1.69924446575544e-05    1.80390610296647e-05
154                      12                       8                2.828427    7.39220757488894e-07    3.05835957102503e-06    4.62752888955864e-06
155                      12                       8                       0    2.96132983138433e-09    1.20380660687364e-08    2.36781970320381e-08
156                      14                      10                5.656854    4.96354325592677e-05    0.000570869103588854    0.000919509961060025
157                      14                      10                2.828427    2.44755945317917e-07    2.12894521228206e-06    4.71585043704939e-06
158                      14                      10                       0    2.89287425074065e-08    2.15901011823097e-07    5.98979046009374e-07
159                      16                       8                5.656854   -2.80413996322604e-08    2.40886632431139e-05    2.61534544185412e-05
160                      16                       8                2.828427   -5.19071948605265e-09     4.2256730786002e-06     6.5204302342563e-06
161                      16                       8                       0     -2.145070432707e-11    1.64428275736274e-08    3.28586094558267e-08
162                      18                      10                5.656854   -5.12238055179993e-05    0.000568966193219579    0.000915630938099165
163                      18                      10                2.828427   -2.50623413852361e-07    2.12293833678161e-06    4.69913476944915e-06
164                      18                      10                       0   -2.95469677447018e-08    2.15375752096077e-07    5.97141304973218e-07
165                      20                       8                5.656854   -3.86637368442344e-06    1.68217831577931e-05    1.78399310493744e-05
166                      20                       8                2.828427   -7.41829107371985e-07    3.03367781967302e-06    4.58619212927305e-06
167                      20                       8                       0   -2.97656950389469e-09    1.19594817068669e-08     2.3503568524283e-08
168                      22                      10                5.656854   -0.000124724833453349    0.000237195503028645    0.000351400767423347
169                      22                      10                2.828427    -5.5988040931171e-07     1.0046622120817e-06    2.09536192389496e-06
170                      22                      10                       0   -6.28805927562817e-08    1.08627907693127e-07    2.89374335847401e-07
171                      24                       8                5.656854   -1.96684701466591e-06    3.18383094141215e-06    3.16372277267442e-06
172                      24                       8                2.828427   -4.73406376168036e-07    7.42919796459096e-07     1.0696438603097e-06
173                      24                       8                       0   -2.11620990531403e-09    3.26651834951205e-09     6.2739703232073e-09
174                      26                      10                5.656854   -2.05940697565099e-05    1.74115641453409e-05    2.39556126669703e-05
175                      26                      10                2.828427   -1.40238090008209e-07    1.17488117142846e-07    2.31218626798002e-07
176                      26                      10                       0   -1.99921387217509e-08    1.66396125179949e-08    4.29264472555715e-08
177                      28                       8                5.656854   -1.38779978951267e-07    1.22604135048177e-07     1.1679579695439e-07
178                      28                       8                2.828427   -5.14307312773052e-08    4.51937079869111e-08    6.30063443317364e-08
179                      28                       8                       0   -1.27455832853168e-10     1.1571537615178e-10    2.30644568038974e-10
180                      30                      10                5.656854   -4.77534983129333e-07    2.45101253729929e-07    3.22177875705075e-07
181                      30                      10                2.828427   -5.93212864848183e-09    3.05733866235271e-09     5.8477577055578e-09
182                      30                      10                       0   -5.43970761194428e-10    2.46359301336171e-10    7.49617261955037e-10
183                       0                      12                5.656854    7.22467457553921e-10    1.14726654962577e-08    2.32253567665981e-08
184                       0                      12                2.828427    2.86312075204959e-10    5.40965702523426e-09    1.55378124539966e-08
185                       0                      12                       0                       0                       0                       0
186                       2                      14                5.656854    2.45897021994497e-06    3.74313930809842e-07    1.66737100800731e-06
187                       2                      14                2.828427    2.61758773854055e-08    4.17774445946558e-09    2.58141771475623e-08
188                       2                      14                       0    4.51337341673731e-09    7.86653805332976e-10    6.04417049154235e-09
189                       4                      12                5.656854    2.14122006596773e-06    8.47036776218873e-07    1.84654509541538e-06
190                       4                      12                2.828427    5.38054021469262e-07     2.1992597597685e-07    6.71923671555023e-07
191                       4                      12                       0    2.51271531387087e-09    1.04244410045708e-09    4.17668868539955e-09
192                       6                      14                5.656854    0.000153493059513389    3.60881921041514e-05    0.000183682234527567
193                       6                      14                2.828427    7.25300670804064e-07    1.84522075034019e-07    1.23057874963863e-06
194                       6                      14                       0    8.33524102590056e-08    2.18232690341683e-08    1.81508821208728e-07
195                       8                      12                5.656854    4.62999780238843e-05    3.59147336458971e-05     8.4873446182836e-05
196                       8                      12                2.828427    5.83150663649822e-06    4.45608850033927e-06    1.44189745210719e-05
197                       8                      12                       0    1.89400507701497e-08    1.43946613537919e-08    5.83245238652311e-08
198                      10                      14                5.656854    0.000922853482054943     0.00055996547935809     0.00324026274888896
199                      10                      14                2.828427    2.72986706592049e-06    1.61180881103216e-06    1.17690791830001e-05
200                      10                      14                       0    2.40061782583129e-07    1.37584486976319e-07    1.20458130313972e-06
201                      12                      12                5.656854     7.0547109549027e-05    0.000177387285058839    0.000479966100003285