ITEM: TIMESTEP
0
ITEM: NUMBER OF ATOMS
422
ITEM: BOX BOUNDS ff ff ff
0.0000000000000000e+00 2.3200000000000000e+02
0.0000000000000000e+00 2.3200000000000000e+02
0.0000000000000000e+00 2.3200000000000000e+02
ITEM: ATOMS id xu yu zu fx fy fz
1        113.145932193839        116.583520815677              108.656854     -0.0101437440768957     -0.0204189818335093       0.026053001085385
2        118.827484840071        116.589226241634              108.656854     0.00746765637751634      -0.021059510222376       0.027853708975464
3        117.402344993917        116.587795112765              108.656854    -0.00603887747031687     -0.0185886841377352      0.0364497194268437
4        114.571072038949        116.584951942936              108.656854      0.0116306418739375     -0.0188944115629399      0.0374461600819481
5        116.701075167769        115.349724850164              108.656854    -0.00436910245178346      0.0131711447952115      0.0147779435545556
6        115.274826990867        115.348292608712              108.656854      0.0123436619821844      0.0136490569900214      0.0157951681320001
7        115.272341865028        117.823022205388              108.656854      0.0352439629926742     -0.0012250026359687      0.0612874689367058
8        116.698590041422        117.824454446583              108.656854     -0.0267295446398337    -0.00104345030009526      0.0578426207010762
9        114.517756920757        114.148446241175              108.656854      0.0341327663877897     0.00467332786010059       0.178947819158409
10        117.460553482731        114.151401403886              108.656854     -0.0535279002131483     0.00475047924868308       0.177046984898208
11        114.512863550773        119.021345651893              108.656854      0.0182481851202693      0.0292622528467603      0.0871574569921678
12        117.455660110655        119.024300814179              108.656854     -0.0367773812548099      0.0288904305874689      0.0855596239845825
13        113.127311260236        114.162444587898              108.656854     -0.0331216179467866     0.00127623588053719       0.124229164418624
14        113.122448808114        119.004554762274              108.656854     -0.0141836858966162      0.0231074576712697      0.0586800041362965
15        118.850968226168        114.168192293572              108.656854      0.0170526280666943     0.00175438991443368        0.12922419456009
16        118.846105771496         119.01030247058              108.656854    -0.00143979414517756      0.0245411311435461       0.062523496980736
17        112.426795838139         117.79431994364              108.656854      -0.015099374708264     0.00541029668900056      0.0332691995666352
18         112.42922905874        115.371279815063              108.656854    -0.00037930032714989     0.00523704401287246     0.00914267099162074
19        119.546621196692        115.378427112272              108.656854      0.0104633775855605     0.00534999772210039     0.00807587604287926
20        119.544187975028         117.80146724296              108.656854       0.026091188767155     0.00496034749056432      0.0340722040550672
21        120.955135022624        115.424435085822              108.656854       0.146300588805359       0.124355003680045      0.0312933440609304
22        120.952791362251        117.758288229576              108.656854       0.116158201494099      -0.036035889924495      0.0361711538755066
23        111.020625673161        115.414458829493              108.656854     -0.0281166455032393       0.126734586279547      0.0539060533319506
24        111.018282013145        117.748311972274              108.656854    0.000429184424731388     -0.0303879759027953      0.0610478239658256
25        121.586726460739        116.591997078118              108.656854      -0.058763802865097     -0.0548679386141213       0.024526378429694
26        110.386690574472        116.580749978664              108.656854    -0.00744629498882388     -0.0570335721115167      0.0100932030209202
27        121.609196045824        118.785922140926              108.656854      -0.169155630574664    -0.00210632182284515       0.128635427253975
28          121.6136022867        114.398121569695              108.656854      -0.178661664756718     -0.0168494631878472       0.162491039145462
29        110.359814750727        118.774625487296              108.656854      0.0226272393445318     -0.0124948724435845       0.100144746603745
30         110.36422099026         114.38682491673              108.656854      0.0282451917948824     -0.0183948713440124       0.131985745951845
31        112.599866822243        113.215454800093              108.656854     -0.0173959837041902      0.0275253712473729    0.000583078233292133
32        112.593103500599        119.950483321209              108.656854     -0.0150382480782477      0.0280250437803728      0.0123161634779357
33        119.380313532952        113.222263734631              108.656854      0.0599555679370095      0.0278311039076104    -0.00545771045204011
34        119.373550207142        119.957292260389              108.656854      0.0552093763289181      0.0258643226449298     0.00629067609629942
35        114.962286572867         113.16896056388              108.656854     0.00668280889116629      0.0154779695720438     -0.0048021084143437
36        114.955425108682        120.001722146141              108.656854     0.00364113632632179       0.020110593386439    -0.00301160506009652
37        117.017991924022        113.171024909739              108.656854      0.0201032009139165       0.015602048740113    -0.00580201434771019
38        117.011130457531        120.003786490585              108.656854      0.0217732052978279      0.0196582594037147    -0.00354329754824619
39                     100                     100              105.656854       0.212142927795057       0.213858948424536      -0.975718001483567
40                     100                     100              102.828427       0.432024885215976       0.430516449714571   -0.000322415180713974
41                     100                     100                     100       0.212144907484092        0.21338525635829       0.976264687500576
42                     102                     102              105.656854      -0.344448384881045      -0.347347889790134      -0.277893341514476
43                     102                     102              102.828427     -0.0509120209748207      -0.048469849773795    0.000576289459631138
44                     102                     102                     100       -0.34449459491205      -0.346390533876775       0.276949392033487
45                     104                     100              105.656854      0.0958431259528211        0.95991347285006      -0.808985213879737
46                     104                     100              102.828427     -0.0638177811002597       0.726803651200102   -0.000213842262554385
47                     104                     100                     100      0.0961981987232137       0.959388644391548       0.809319754492803
48                     106                     102              105.656854      -0.149284077054057      -0.514598071902168      -0.381360432499226
49                     106                     102              102.828427         0.1423532323276      0.0663539257829138     0.00026369920598069
50                     106                     102                     100      -0.150219068473334      -0.513675334908667       0.380984459033734
51                     108                     100              105.656854       0.109796506082329        1.05999709533888      -0.801916135779445
52                     108                     100              102.828427      -0.111721219831375       0.639928629999221    0.000257746062063454
53                     108                     100                     100       0.110709506827867        1.06000755121194       0.801438801823641
54                     110                     102              105.656854       -0.14370458685678      -0.581854213746682      -0.373883368451393
55                     110                     102              102.828427       0.148280062505097       0.134790873360157   -0.000886754101311256
56                     110                     102                     100      -0.145711074283644      -0.582599774863057       0.375412121780775
57                     112                     100              105.656854       0.131990813885033        1.10866380734544      -0.810573153110985
58                     112                     100              102.828427      -0.135676460731982       0.589305647629994     0.00102524144487389
59                     112                     100                     100       0.132958476403098        1.10992633400131       0.808820801105624
60                     114                     102              105.656854      -0.164195651256928      -0.619509356803999      -0.361692062628409
61                     114                     102              102.828427        0.16897911136875       0.175192294751367    -0.00226186827217038
62                     114                     102                     100      -0.165390331695644      -0.622826467392397       0.365447454885727
63                     116                     100              105.656854       0.166588340568528        1.14438941788334      -0.821054705003376
64                     116                     100              102.828427       -0.17077170546322       0.551986948462504     0.00143753671723885
65                     116                     100                     100       0.166587354624091        1.14640546458638        0.81862619618682
66                     118                     102              105.656854      -0.209101544900279      -0.651707188080399      -0.348259060853009
67                     118                     102              102.828427       0.214109982086956       0.208438027391418    -0.00225996434351436
68                     118                     102                     100      -0.207903397773655      -0.655018930946421       0.352011392424288
69                     120                     100              105.656854       0.222888503993302        1.18274629319996      -0.835141160631663
70                     120                     100              102.828427      -0.228411739822674       0.512798665982961     0.00102455704505681
71                     120                     100                     100       0.221921732327987        1.18400644434139       0.833389918214844
72                     122                     102              105.656854      -0.288149819812558      -0.688023631390531      -0.330354164599047
73                     122                     102              102.828427       0.293154774927626       0.244354741135143   -0.000886101088621443
74                     122                     102                     100      -0.286149364532455      -0.688766347906588       0.331881782907871
75                     124                     100              105.656854       0.326081732585476        1.23663943081902      -0.852114112599368
76                     124                     100              102.828427      -0.322793429541905       0.459544897820225    0.000258877488743462
77                     124                     100                     100       0.325171811209838        1.23665117701758       0.851634980026449
78                     126                     102              105.656854       -0.46147748181208      -0.727396010720693      -0.331929727965893
79                     126                     102              102.828427       0.397060710586393       0.281529444523611    0.000259701532087064
80                     126                     102                     100      -0.460546805182299       -0.72648003961517       0.331560051836708
81                     128                     100              105.656854       0.708187337800661        1.34055973881463      -0.754784922419993
82                     128                     100              102.828427      -0.280852838502559       0.396185214190092   -0.000211017995106984
83                     128                     100                     100       0.707833358643169        1.34003900618237       0.755114846751202
84                     130                     102              105.656854       -1.34063725675403       -0.70852059841561       -0.75533498700651
85                     130                     102              102.828427      -0.395849551558444       0.280872737517347    0.000571199765897812
86                     130                     102                     100       -1.34059024177591       -0.70757044655996       0.754399291469369
87                     100                     104              105.656854       0.958931636226518      0.0998398921899318      -0.808520514867119
88                     100                     104              102.828427       0.727769161414526     -0.0670963453858896    -0.00091499301595278
89                     100                     104                     100         0.9584969406491      0.0986529713824429        0.81003910065206
90                     102                     106              105.656854      -0.513416126817893      -0.156696674562407      -0.382541587790595
91                     102                     106              102.828427      0.0650373554195955       0.147960400613376     0.00186815703836069
92                     102                     106                     100      -0.512402983115083      -0.154024355576723       0.379536249330753
93                     104                     104              105.656854       0.247099773444809       0.252402625182115      -0.388712877264043
94                     104                     104              102.828427      -0.179953193242719      -0.184124255447146    -0.00108197793455659
95                     104                     104                     100       0.247349634360715       0.250324483806019       0.390424463287331
96                     106                     106              105.656854      -0.232987616199774      -0.243760535422276      -0.504066422113203
97                     106                     106              102.828427        0.22529869682208       0.232827069025197     0.00208564817261451
98                     106                     106                     100      -0.234202001524388      -0.238926502457151       0.500789947006214
99                     108                     104              105.656854       0.173583100933754       0.337970998611102      -0.375428939581337
100                     108                     104              102.828427      -0.177461090473771      -0.268416437565508   -9.57180508853976e-05
101                     108                     104                     100       0.176244305033238       0.336573470631822       0.375478826149492
102                     110                     106              105.656854      -0.183262790798172       -0.29207839437755      -0.489806128525334
103                     110                     106              102.828427       0.192780794405885       0.285149507379435    -0.00125368682316916
104                     110                     106                     100      -0.191121236679235      -0.291615434027765       0.491966712387484
105                     112                     104              105.656854       0.167882454603676       0.379783101244115      -0.390555784855106
106                     112                     104              102.828427      -0.174606513178368      -0.314604784986975     0.00271397544422466
107                     112                     104                     100        0.17192978245647       0.383430972445312       0.386055962226481
108                     114                     106              105.656854      -0.189467061879984      -0.309785375396954       -0.46863645562165
109                     114                     106              102.828427       0.198029233719526       0.312267956776893    -0.00734929629934903
110                     114                     106                     100      -0.195275569480459      -0.322349276439414       0.480992575726249
111                     116                     104              105.656854       0.198197575342278       0.406663964854972      -0.405588306099746
112                     116                     104              102.828427      -0.203402513628281      -0.344710941096774     0.00452095560989016
113                     116                     104                     100       0.198189236734776        0.41405983662456       0.398181333111216
114                     118                     106              105.656854      -0.239766923866418      -0.332024156123362      -0.452743418265964
115                     118                     106              102.828427        0.24280059667975       0.335179794578401    -0.00733447153104509
116                     118                     106                     100      -0.233929955836308      -0.344545909790215        0.46507334862638
117                     120                     104              105.656854        0.25953183807176       0.436454622795668      -0.421277214204546
118                     120                     104              102.828427      -0.264386977721703       -0.37311337524288     0.00270749509869814
119                     120                     104                     100       0.255489167194991       0.440084526058882       0.416788022060864
120                     122                     106              105.656854      -0.316968717830171      -0.362067537248139      -0.438034015356281
121                     122                     106              102.828427        0.31915795951025       0.357409323460721    -0.00124695704640278
122                     122                     106                     100      -0.309152206772189      -0.361587473825647       0.440183476047019
123                     124                     104              105.656854       0.367652122265315       0.463270758004249       -0.43875253104512
124                     124                     104              102.828427      -0.362205958429323      -0.397623651391767   -9.21166981310426e-05
125                     124                     104                     100       0.365005783002485       0.461880492406095       0.438796809191272
126                     126                     106              105.656854      -0.466244000773227      -0.368045369697714      -0.440977893054901
127                     126                     106              102.828427       0.401038613814261       0.361059046027701     0.00206873645749996
128                     126                     106                     100      -0.465040775627692      -0.363247412081733       0.437729120864309
129                     128                     104              105.656854       0.728070404836075       0.461893520986583      -0.330859095115004
130                     128                     104              102.828427      -0.282643910957898      -0.396806848349447    -0.00107254612465618
131                     128                     104                     100       0.727821129285208       0.459831296719852       0.332555811212867
132                     130                     106              105.656854       -1.23697716642268      -0.327949323820308      -0.853376659423237
133                     130                     106              102.828427       -0.45858258066896       0.323695118594833     0.00185290642894933
134                     130                     106                     100       -1.23798083631322      -0.325298641163847       0.850395415086774
135                     100                     108              105.656854        1.06255375682778       0.116546059890005      -0.800141635615366
136                     100                     108              102.828427       0.638476624942151      -0.116878054730697    -0.00223286673980761
137                     100                     108                     100        1.06052281910391       0.114237113936933       0.803774874781661
138                     102                     110              105.656854       -0.58890819468346       -0.15564129540837      -0.378609854953875
139                     102                     110              102.828427       0.138237733722561       0.156398831616044     0.00484083504829595
140                     102                     110                     100      -0.583630636570121      -0.150597448213248       0.370846555676182
141                     104                     108              105.656854       0.337231043227001       0.188670950161142      -0.371864422305751
142                     104                     108              102.828427      -0.266674341210971      -0.187384994437797    -0.00412356163457786
143                     104                     108                     100       0.334678523672396       0.182065992862947        0.37847188148605
144                     106                     110              105.656854      -0.295034019119646      -0.217018499386224      -0.503247590941503
145                     106                     110              102.828427        0.28266011581205       0.210009903163677     0.00953762230302523
146                     106                     110                     100      -0.288524649169438      -0.199352357691467       0.485959043556743
147                     108                     108              105.656854       0.222112437656795       0.247179308208766      -0.361045219626242
148                     108                     108              102.828427      -0.229309110926066      -0.243354328815951    -0.00367787746768134
149                     108                     108                     100        0.22828349543089       0.235584966366613       0.367681477817154
150                     110                     110              105.656854      -0.188082184113991      -0.250753394304283      -0.484191105146733
151                     110                     110              102.828427       0.217850401478339       0.242278984532967     0.00299052671385899
152                     110                     110                     100      -0.222318629833574      -0.232358675456801        0.47551632697317
153                     112                     108              105.656854       0.181518724772316       0.257314880562587      -0.391570836705208
154                     112                     108              102.828427      -0.200072798110652      -0.269320362740292     0.00732090321856431
155                     112                     108                     100        0.20182947004005        0.26720655759625       0.378366038375639
156                     114                     110              105.656854      -0.184771121144764      -0.194795439195187      -0.405117237861969
157                     114                     110              102.828427       0.210730407440014       0.246299645062562     -0.0236056142236732
158                     114                     110                     100      -0.213813735395374      -0.249089945362836       0.468929050527569
159                     116                     108              105.656854       0.220249643893274        0.25620288151668       -0.41937041932158
160                     116                     108              102.828427      -0.226109155875603      -0.282999641593997      0.0160902921755999
161                     116                     108                     100         0.2201865252877       0.286160440142096       0.389945703759145
162                     118                     110              105.656854      -0.278178773679845      -0.206040285895619      -0.388014259609307
163                     118                     110              102.828427       0.264685830000051       0.257655301117922     -0.0235177489638304
164                     118                     110                     100      -0.248881046263938      -0.260062064180985       0.451552838277464
165                     120                     108              105.656854       0.293493699330951        0.29104413036393      -0.426297460992348
166                     120                     108              102.828427      -0.288124178784103       -0.30400632554423     0.00727353786283236
167                     120                     108                     100       0.273224569937119        0.30079950615137       0.413187614828735
168                     122                     110              105.656854      -0.348276729540217      -0.284366789593778       -0.42782888267718
169                     122                     110              102.828427       0.331737690801283       0.276863173286241     0.00302975323999899
170                     122                     110                     100      -0.314436112787105      -0.265854052066575       0.419081336048868
171                     124                     108              105.656854       0.374733517247798       0.316738301636149      -0.433422818421086
172                     124                     108              102.828427      -0.367639551825599      -0.315242228664077     -0.0036575334489765
173                     124                     108                     100        0.36863717259973        0.30521424696693       0.440009070496763
174                     126                     110              105.656854      -0.440431449470673      -0.272770352272505      -0.431782450799833
175                     126                     110              102.828427       0.380975849991394        0.26770899362563       0.009464966416561
176                     126                     110                     100      -0.446906042517628      -0.255260531644653       0.414661709296224
177                     128                     108              105.656854       0.689295555888294       0.292745932893869      -0.327163822757473
178                     128                     108              102.828427      -0.247099864175027       -0.29489199583102    -0.00408958924707785
179                     128                     108                     100       0.691826594525798       0.286198242371332       0.333714922858085
180                     130                     110              105.656854        -1.1805865228695      -0.227972138873417      -0.838582028130903
181                     130                     110              102.828427      -0.512342197225554       0.231139264639044      0.0048010441919186
182                     130                     110                     100       -1.18581553632668      -0.222970374071828       0.830883133144823
183                     100                     112              105.656854        1.11790874470592       0.138491040713742      -0.806610107845441
184                     100                     112              102.828427       0.583634676305363      -0.140369511701682     -0.0042005828979849
185                     100                     112                     100        1.11267636470714       0.135953706218436       0.813377399491552
186                     102                     114              105.656854       -0.63859255267878      -0.171529884917082      -0.371216201449594
187                     102                     114              102.828427       0.184927745854147       0.173677071982251     0.00844309861329758
188                     102                     114                     100      -0.626592741674892      -0.168020937995937       0.357551460360396
189                     104                     112              105.656854       0.399385758598998       0.188377791219066       -0.37605707724892
190                     104                     112              102.828427      -0.321668458047908        -0.1861555599248     -0.0108817851066271
191                     104                     112                     100       0.384826600937482       0.177804216853811       0.394668097560288
192                     106                     114              105.656854      -0.355401827869609       -0.21339882851261       -0.51561024433756
193                     106                     114              102.828427        0.32185766495128        0.20928311728802      0.0223785927863872
194                     106                     114                     100      -0.322593781957623      -0.200122060217328       0.466818053025343
195                     108                     112              105.656854       0.274199605061872       0.257935067346299      -0.325260592794699
196                     108                     112              102.828427      -0.262636960446717       -0.22416921295291     -0.0189586622481872
197                     108                     112                     100       0.261628202923018       0.211167693472793       0.388710742768501
198                     110                     114              105.656854       -0.15318970830232      -0.236330877537461      -0.701428765870795
199                     110                     114              102.828427       0.225113000197323       0.227286895360021      0.0161217703008185
200                     110                     114                     100       -0.23982429076958      -0.220148974268703       0.456525183202572
201                     112                     112              105.656854       0.115873164614146       0.226183355449427      -0.431148749489556