ITEM: TIMESTEP
0
ITEM: NUMBER OF ATOMS
422
ITEM: BOX BOUNDS ff ff ff
0.0000000000000000e+00 2.3200000000000000e+02
0.0000000000000000e+00 2.3200000000000000e+02
0.0000000000000000e+00 2.3200000000000000e+02
ITEM: ATOMS id xu yu zu fx fy fz
1        113.132056383484        115.969645005323        108.642978189646        2.53186313427366        2.27475613752808      0.0174043001151198
2        118.786893826253        115.948635227816        108.616262986182        2.14554579305158        1.14579510500302     0.00125908011357765
3        117.430508938984        116.015959057832        108.685017945067       -2.76827987838279      -0.407201508174875      0.0248457500911831
4        114.577240666948        115.991120570934        108.663022627998        -1.5072117171251       -2.30943290275927      -0.118603517590688
5        116.719815452454        114.768465134848        108.675594284684       -2.39346399710401       0.479985879928813      -0.156114636411801
6        115.234348974786        114.707814592631        108.616375983919        4.41008970423345        4.43612669041954       0.126808228104434
7        115.245929430966        117.196609771326        108.630441565938        3.24882327169228        1.66021948296688       0.169442077363463
8        116.726949780092        117.252814185253        108.685213738671        -4.5276862607712       -3.71482599559154     -0.0219237891395371
9        114.549830146597        113.580519467014        108.688927225839       -1.39633585199326       -2.07505483025273        0.12839327227408
10        117.481554310153        113.572402231308        108.677854827422       -2.00973074414779       0.224410966740374      -0.024910639987924
11        114.499361013055        118.407843114176        108.643351462282      -0.648225179766998       -2.95194302643072      0.0285983668599318
12        117.410754907045        118.379395610569         108.61194879639        2.26038845648368        1.81238254588755      -0.123473151444782
13        113.165370984478         113.60050431214        108.694913724242        -0.2909535349742      0.0464315130610897    -0.00850630730698516
14        113.096902978065        118.379008932226        108.631308169952        1.23201320931322        1.10350740153784    -0.00495753316827867
15        118.844010400357        113.561234467762        108.649896174189        1.03515321224105        1.40877088055184     -0.0260567386467514
16        118.813034878934        118.377231578018        108.623783107437     -0.0415888761751649       0.573012106642879      0.0240917043019994
17         112.43020788056        117.197731986061        108.660266042421       -1.34311835719855       -2.08068953136177    -0.00888762127417408
18        112.458181281847        114.800232038171        108.685806223108       -1.63377768119316       -1.43040645786115      0.0372786881757342
19        119.549643129601        114.781449045181        108.659875932908        -1.2203564484251      -0.527045551121526     -0.0213103648669774
20        119.518644611718        117.175923879649         108.63131063669          2.340093463494       -1.18713744232225       0.125489626138985
21        120.921756965979        114.791057029177        108.623475943355       0.819256213070438        2.38568002536883     -0.0167501823321942
22        120.987496566331        117.192993433656        108.691559204081       -5.47314452436449       -6.54749848359002      0.0319324438552507
23        111.046370456381        114.840203612713         108.68259878322       -2.50021974086194       -4.70872622533758      -0.303048544147543
24        111.012099883716        117.142129842845        108.650671870571        2.01360353901749       0.998037900666917     -0.0079638971718319
25        121.568799951031        115.974070568409        108.638927490292       -1.93707532225775       0.200996785829281      0.0628406903640056
26        110.404996279395        115.999055683588        108.675159704923      -0.116440234356509       -1.47982234383191      0.0224401669721778
27        121.586254585514        118.162980680616         108.63391253969        2.78135978538292        4.50579939574272      -0.267781155261576
28        121.635280147048        113.819799430043        108.678531860348       0.430114925595847      -0.585478371368167      0.0331879499776713
29        110.349002917659        118.163813654228        108.646042166932       0.047174385855017     -0.0726851558779375    0.000329368760590922
30        110.327704888089        113.750308814559        108.620337897829         3.4871306567829        5.28842027640816       0.302104138205576
31        112.628566730996        112.644154708847        108.685553908754        0.23256688972723       0.414332135572817     0.00405507810817946
32        112.587753457642        119.345133278252        108.651503957043       0.156707574321433      -0.297356663780848    -0.00621592023488515
33        119.425686257991         112.66763645967        108.702226725039        0.23472920467346      -0.360602123991387      0.0211174461167956
34        119.367130456452        119.350872509699         108.65043424931      -0.600364113765388        -1.0549426827987     -0.0288765870371165
35        114.977939430415        112.584613421427        108.672506857548      -0.033413680227345       0.077729886740446     0.00128160018023562
36        114.907425341559        119.353722379018        108.608854232877        0.62215365640501        1.44213106128867     -0.0525960636864216
37        117.005627092479        112.558660078197        108.644489168457       0.513311023792722        1.09337100958059      0.0359865120684311
38         116.96217192078        119.354827953834        108.607895463249      -0.100691956316649       0.218952108986052   -0.000909838437954951
39                     100                     100              105.656854                       0                       0                       0
40                     100                     100              102.828427                       0                       0                       0
41                     100                     100                     100                       0                       0                       0
42                     102                     102              105.656854                       0                       0                       0
43                     102                     102              102.828427                       0                       0                       0
44                     102                     102                     100                       0                       0                       0
45                     104                     100              105.656854                       0                       0                       0
46                     104                     100              102.828427                       0                       0                       0
47                     104                     100                     100                       0                       0                       0
48                     106                     102              105.656854                       0                       0                       0
49                     106                     102              102.828427                       0                       0                       0
50                     106                     102                     100                       0                       0                       0
51                     108                     100              105.656854                       0                       0                       0
52                     108                     100              102.828427                       0                       0                       0
53                     108                     100                     100                       0                       0                       0
54                     110                     102              105.656854                       0                       0                       0
55                     110                     102              102.828427                       0                       0                       0
56                     110                     102                     100                       0                       0                       0
57                     112                     100              105.656854                       0                       0                       0
58                     112                     100              102.828427                       0                       0                       0
59                     112                     100                     100                       0                       0                       0
60                     114                     102              105.656854                       0                       0                       0
61                     114                     102              102.828427                       0                       0                       0
62                     114                     102                     100                       0                       0                       0
63                     116                     100              105.656854                       0                       0                       0
64                     116                     100              102.828427                       0                       0                       0
65                     116                     100                     100                       0                       0                       0
66                     118                     102              105.656854                       0                       0                       0
67                     118                     102              102.828427                       0                       0                       0
68                     118                     102                     100                       0                       0                       0
69                     120                     100              105.656854                       0                       0                       0
70                     120                     100              102.828427                       0                       0                       0
71                     120                     100                     100                       0                       0                       0
72                     122                     102              105.656854                       0                       0                       0
73                     122                     102              102.828427                       0                       0                       0
74                     122                     102                     100                       0                       0                       0
75                     124                     100              105.656854                       0                       0                       0
76                     124                     100              102.828427                       0                       0                       0
77                     124                     100                     100                       0                       0                       0
78                     126                     102              105.656854                       0                       0                       0
79                     126                     102              102.828427                       0                       0                       0
80                     126                     102                     100                       0                       0                       0
81                     128                     100              105.656854                       0                       0                       0
82                     128                     100              102.828427                       0                       0                       0
83                     128                     100                     100                       0                       0                       0
84                     130                     102              105.656854                       0                       0                       0
85                     130                     102              102.828427                       0                       0                       0
86                     130                     102                     100                       0                       0                       0
87                     100                     104              105.656854                       0                       0                       0
88                     100                     104              102.828427                       0                       0                       0
89                     100                     104                     100                       0                       0                       0
90                     102                     106              105.656854                       0                       0                       0
91                     102                     106              102.828427                       0                       0                       0
92                     102                     106                     100                       0                       0                       0
93                     104                     104              105.656854                       0                       0                       0
94                     104                     104              102.828427                       0                       0                       0
95                     104                     104                     100                       0                       0                       0
96                     106                     106              105.656854                       0                       0                       0
97                     106                     106              102.828427                       0                       0                       0
98                     106                     106                     100                       0                       0                       0
99                     108                     104              105.656854                       0                       0                       0
100                     108                     104              102.828427                       0                       0                       0
101                     108                     104                     100                       0                       0                       0
102                     110                     106              105.656854                       0                       0                       0
103                     110                     106              102.828427                       0                       0                       0
104                     110                     106                     100                       0                       0                       0
105                     112                     104              105.656854                       0                       0                       0
106                     112                     104              102.828427                       0                       0                       0
107                     112                     104                     100                       0                       0                       0
108                     114                     106              105.656854                       0                       0                       0
109                     114                     106              102.828427                       0                       0                       0
110                     114                     106                     100                       0                       0                       0
111                     116                     104              105.656854                       0                       0                       0
112                     116                     104              102.828427                       0                       0                       0
113                     116                     104                     100                       0                       0                       0
114                     118                     106              105.656854                       0                       0                       0
115                     118                     106              102.828427                       0                       0                       0
116                     118                     106                     100                       0                       0                       0
117                     120                     104              105.656854                       0                       0                       0
118                     120                     104              102.828427                       0                       0                       0
119                     120                     104                     100                       0                       0                       0
120                     122                     106              105.656854                       0                       0                       0
121                     122                     106              102.828427                       0                       0                       0
122                     122                     106                     100                       0                       0                       0
123                     124                     104              105.656854                       0                       0                       0
124                     124                     104              102.828427                       0                       0                       0
125                     124                     104                     100                       0                       0                       0
126                     126                     106              105.656854                       0                       0                       0
127                     126                     106              102.828427                       0                       0                       0
128                     126                     106                     100                       0                       0                       0
129                     128                     104              105.656854                       0                       0                       0
130                     128                     104              102.828427                       0                       0                       0
131                     128                     104                     100                       0                       0                       0
132                     130                     106              105.656854                       0                       0                       0
133                     130                     106              102.828427                       0                       0                       0
134                     130                     106                     100                       0                       0                       0
135                     100                     108              105.656854                       0                       0                       0
136                     100                     108              102.828427                       0                       0                       0
137                     100                     108                     100                       0                       0                       0
138                     102                     110              105.656854                       0                       0                       0
139                     102                     110              102.828427                       0                       0                       0
140                     102                     110                     100                       0                       0                       0
141                     104                     108              105.656854                       0                       0                       0
142                     104                     108              102.828427                       0                       0                       0
143                     104                     108                     100                       0                       0                       0
144                     106                     110              105.656854                       0                       0                       0
145                     106                     110              102.828427                       0                       0                       0
146                     106                     110                     100                       0                       0                       0
147                     108                     108              105.656854                       0                       0                       0
148                     108                     108              102.828427                       0                       0                       0
149                     108                     108                     100                       0                       0                       0
150                     110                     110              105.656854                       0                       0                       0
151                     110                     110              102.828427                       0                       0                       0
152                     110                     110                     100                       0                       0                       0
153                     112                     108              105.656854                       0                       0                       0
154                     112                     108              102.828427                       0                       0                       0
155                     112                     108                     100                       0                       0                       0
156                     114                     110              105.656854                       0                       0                       0
157                     114                     110              102.828427                       0                       0                       0
158                     114                     110                     100                       0                       0                       0
159                     116                     108              105.656854                       0                       0                       0
160                     116                     108              102.828427                       0                       0                       0
161                     116                     108                     100                       0                       0                       0
162                     118                     110              105.656854                       0                       0                       0
163                     118                     110              102.828427                       0                       0                       0
164                     118                     110                     100                       0                       0                       0
165                     120                     108              105.656854                       0                       0                       0
166                     120                     108              102.828427                       0                       0                       0
167                     120                     108                     100                       0                       0                       0
168                     122                     110              105.656854                       0                       0                       0
169                     122                     110              102.828427                       0                       0                       0
170                     122                     110                     100                       0                       0                       0
171                     124                     108              105.656854                       0                       0                       0
172                     124                     108              102.828427                       0                       0                       0
173                     124                     108                     100                       0                       0                       0
174                     126                     110              105.656854                       0                       0                       0
175                     126                     110              102.828427                       0                       0                       0
176                     126                     110                     100                       0                       0                       0
177                     128                     108              105.656854                       0                       0                       0
178                     128                     108              102.828427                       0                       0                       0
179                     128                     108                     100                       0                       0                       0
180                     130                     110              105.656854                       0                       0                       0
181                     130                     110              102.828427                       0                       0                       0
182                     130                     110                     100                       0                       0                       0
183                     100                     112              105.656854                       0                       0                       0
184                     100                     112              102.828427                       0                       0                       0
185                     100                     112                     100                       0                       0                       0
186                     102                     114              105.656854                       0                       0                       0
187                     102                     114              102.828427                       0                       0                       0
188                     102                     114                     100                       0                       0                       0
189                     104                     112              105.656854                       0                       0                       0
190                     104                     112              102.828427                       0                       0                       0
191                     104                     112                     100                       0                       0                       0
192                     106                     114              105.656854                       0                       0                       0
193                     106                     114              102.828427                       0                       0                       0
194                     106                     114                     100                       0                       0                       0
195                     108                     112              105.656854                       0                       0                       0
196                     108                     112              102.828427                       0                       0                       0
197                     108                     112                     100                       0                       0                       0
198                     110                     114              105.656854                       0                       0                       0
199                     110                     114              102.828427                       0                       0                       0
200                     110                     114                     100                       0                       0                       0
201                     112                     112              105.656854                       0                       0                       0