ITEM: TIMESTEP
0
ITEM: NUMBER OF ATOMS
422
ITEM: BOX BOUNDS pp pp pp
0.0000000000000000e+00 3.2000000000000000e+01
0.0000000000000000e+00 3.2000000000000000e+01
0.0000000000000000e+00 3.2000000000000000e+01
ITEM: ATOMS id xu yu zu fx fy fz
1        13.1459321938386        15.9835208156773                 9.05685    -0.00130572748129607    0.000130869303452505     -0.0141176863317636
2        18.8274848400711        15.9892262416344                 9.05685     0.00130607534545282    8.79951650832878e-05     -0.0139623666284004
3         17.402344993917         15.987795112765                 9.05685    -0.00119332579924364    0.000122802330106031     -0.0126462961073617
4         14.571072038949        15.9849519429358                 9.05685     0.00116603262543424    0.000154394935473048     -0.0125040948518962
5        16.7010751677692        14.7497248501637                 9.05685    -0.00550984257127085     0.00323898382682666    -0.00556060463772556
6        15.2748269908674        14.7482926087119                 9.05685     0.00565088735695657     0.00336322864387484    -0.00502039263208839
7        15.2723418650276        17.2230222053877                 9.05685     0.00551110584982745    -0.00341143796815238    -0.00535803944843854
8        16.6985900414216        17.2244544465825                 9.05685    -0.00536164748081089    -0.00325589410828585    -0.00595176556691508
9        14.5177569207574        13.5484462411751                 9.05685     0.00666725808279244    -0.00580785125214851      0.0217130395400356
10        17.4605534827313        13.5514014038861                 9.05685    -0.00686422731581932    -0.00569888903360695      0.0212054221758315
11        14.5128635507729         18.421345651893                 9.05685     0.00673072715248908     0.00552096849158508       0.022512111248807
12        17.4556601106552        18.4243008141789                 9.05685    -0.00699435817138244     0.00544034287467389      0.0216032911529451
13        13.1273112602358        13.5624445878976                 9.05685    -0.00843185082030234    -0.00419292479530411      0.0112055820727466
14        13.1224488081137        18.4045547622743                 9.05685    -0.00857908192077583     0.00392050163492644      0.0115723724768483
15         18.850968226168        13.5681922935721                 9.05685     0.00843638775608939    -0.00424657740141887      0.0120133535533032
16        18.8461057714963        18.4103024705805                 9.05685      0.0085235905633313     0.00409925508199396      0.0125270394873687
17         12.426795838139        17.1943199436399                 9.05685    -0.00343607989500414    -0.00207325498063849     -0.0109464185595185
18        12.4292290587396        14.7712798150634                 9.05685    -0.00357503111648667     0.00206585201476754     -0.0106127608228279
19        19.5466211966922        14.7784271122721                 9.05685     0.00373145115472292     0.00215666807452776     -0.0103353761654018
20        19.5441879750283        17.2014672429596                 9.05685      0.0036749455145626    -0.00217549045078763     -0.0104834543495436
21        20.9551350226241        14.8244350858224                 9.05685    -0.00609256263312389     0.00479803522868413   -0.000942550541303452
22        20.9527913622507        17.1582882295758                 9.05685    -0.00597894524531722    -0.00479845300694761    -0.00132528584912464
23        11.0206256731611        14.8144588294926                 9.05685     0.00620460118752307     0.00494024218259197   -0.000169378444729787
24        11.0182820131454        17.1483119722736                 9.05685     0.00597320443922743    -0.00498792452508178   -0.000842964731629802
25        21.5867264607395        15.9919970781177                 9.05685   -0.000219958901544101    3.31237689409399e-05     -0.0110857429128702
26        10.3866905744716        15.9807499786644                 9.05685    0.000210278266516211    8.03683548581876e-05     -0.0110432725447446
27         21.609196045824        18.1859221409264                 9.05685    -0.00229189299721389     0.00108472779270147     0.00581102063223897
28        21.6136022867001        13.7981215696947                 9.05685    -0.00226175255320212    -0.00117585721308205     0.00577692441145095
29        10.3598147507275        18.1746254872963                 9.05685     0.00214595384282176     0.00103696191769192     0.00615217612787912
30        10.3642209902605        13.7868249167297                 9.05685     0.00214696313671348    -0.00125179822515237     0.00592527056026984
31        12.5998668222426        12.6154548000933                 9.05685    6.68222646130756e-05    7.26216820950351e-05     -0.0088407591632409
32        12.5931035005993        19.3504833212092                 9.05685    5.41230678146598e-05   -7.50611670136125e-05    -0.00882455181828615
33        19.3803135329519        12.6222637346313                 9.05685   -6.41695536110244e-05    6.51995076776863e-05    -0.00882444995762875
34        19.3735502071424         19.357292260389                 9.05685   -5.61773073262523e-05   -6.22910724860648e-05    -0.00880689983678674
35        14.9622865728669        12.5689605638796                 9.05685    -5.7960793682667e-05   -0.000112971606766467    -0.00856063825384827
36         14.955425108682        19.4017221461408                 9.05685   -4.30388311216112e-05    0.000123775287156125    -0.00851403818827344
37        17.0179919240215        12.5710249097393                 9.05685    5.92663561206937e-05   -0.000104176985291909    -0.00857434113512901
38         17.011130457531        19.4037864905846                 9.05685    4.79269539448435e-05    0.000106844765691311    -0.00854669827732585
39                       0                       0                5.656854                       0                       0                       0
40                       0                       0                2.828427                       0                       0                       0
41                       0                       0                       0                       0                       0                       0
42                       2                       2                5.656854    4.84672322971746e-10    6.82998191882391e-10    1.97015832237513e-10
43                       2                       2                2.828427                       0                       0                       0
44                       2                       2                       0                       0                       0                       0
45                       4                       0                5.656854                       0                       0                       0
46                       4                       0                2.828427                       0                       0                       0
47                       4                       0                       0                       0                       0                       0
48                       6                       2                5.656854    1.51409187097316e-08     3.0382072495188e-08    8.91062180698854e-09
49                       6                       2                2.828427    4.15139772429802e-10      8.457310409656e-10    4.62346682877495e-10
50                       6                       2                       0                       0                       0                       0
51                       8                       0                5.656854    5.82929517972441e-10    4.05555264312953e-11    4.63834325878637e-10
52                       8                       0                2.828427    3.02698889197213e-10     1.6443537281128e-11     4.1016284632781e-10
53                       8                       0                       0                       0                       0                       0
54                      10                       2                5.656854    6.56318195610893e-08    2.53424872739353e-07    7.59009981005709e-08
55                      10                       2                2.828427    1.96284504511824e-09    7.89749521705612e-09    4.33651304946251e-09
56                      10                       2                       0    4.20889495898344e-10    1.95651255683426e-09    1.61464594860119e-09
57                      12                       0                5.656854    9.63383588644592e-10    1.74433308960374e-10     2.0348546061783e-09
58                      12                       0                2.828427    9.93360928306586e-10    1.46427040592444e-10    3.48050466415816e-09
59                      12                       0                       0                       0                       0                       0
60                      14                       2                5.656854    4.07303611409533e-08    6.23021264626263e-07    1.89178781586126e-07
61                      14                       2                2.828427    1.23335071254557e-09    1.90952710126072e-08     1.0604713790124e-08
62                      14                       2                       0    3.07290074281261e-10    6.60078743881139e-09     5.4377608256452e-09
63                      16                       0                5.656854   -6.11586005294078e-12    2.40142411434715e-10    3.22697904292818e-09
64                      16                       0                2.828427   -6.09299945834234e-12    2.32218123706072e-09    4.98378768419735e-09
65                      16                       0                       0                       0                       0                       0
66                      18                       2                5.656854   -4.17141801863228e-08    6.19531521651636e-07    1.88077420703813e-07
67                      18                       2                2.828427   -1.26406834279022e-09    1.89981003643895e-08    1.05484400661999e-08
68                      18                       2                       0   -3.18514086293793e-10    6.57128953055676e-09    5.41204780517054e-09
69                      20                       0                5.656854   -9.69905448694411e-10     1.2839219283787e-10    2.02456842652345e-09
70                      20                       0                2.828427   -9.99800379622492e-10    1.11655837107066e-10    3.46243201039379e-09
71                      20                       0                       0                       0                       0                       0
72                      22                       2                5.656854   -6.50299206839082e-08    2.49283588422527e-07    7.46223572172658e-08
73                      22                       2                2.828427   -1.94784771979074e-09    7.77913594161357e-09     4.2692726452062e-09
74                      22                       2                       0     -4.189143923806e-10    1.93072503528339e-09     1.5923630755694e-09
75                      24                       0                5.656854   -5.78483971176338e-10    2.62611161650314e-11    4.58028510459324e-10
76                      24                       0                2.828427   -3.00490614742724e-10    1.19032233227793e-11    4.04840153302577e-10
77                      24                       0                       0                       0                       0                       0
78                      26                       2                5.656854   -1.48107109234151e-08    2.96153887927794e-08    8.68003852437875e-09
79                      26                       2                2.828427   -4.06807973380288e-10    8.25952089501804e-10    4.51207384514955e-10
80                      26                       2                       0                       0                       0                       0
81                      28                       0                5.656854                       0                       0                       0
82                      28                       0                2.828427                       0                       0                       0
83                      28                       0                       0                       0                       0                       0
84                      30                       2                5.656854   -4.69879696077144e-10    6.61034447323871e-10    1.90497653671959e-10
85                      30                       2                2.828427                       0                       0                       0
86                      30                       2                       0                       0                       0                       0
87                       0                       4                5.656854    4.83306464542412e-12    2.66062815579071e-10    9.23793192700478e-11
88                       0                       4                2.828427                       0                       0                       0
89                       0                       4                       0                       0                       0                       0
90                       2                       6                5.656854    8.43687165298036e-08    7.68736893378848e-08    3.23954479569208e-08
91                       2                       6                2.828427    2.81187416099059e-09    2.54782425056865e-09     1.9679347548552e-09
92                       2                       6                       0    7.35496503062814e-10    6.84723957304091e-10    7.96401901805441e-10
93                       4                       4                5.656854     9.5392931075455e-09    1.30188639927165e-08    4.49479304856284e-09
94                       4                       4                2.828427    9.61172676589556e-09    1.33380805258086e-08    8.43667378360555e-09
95                       4                       4                       0    7.28526668610246e-11    1.12031982606642e-10    1.03675795807534e-10
96                       6                       6                5.656854    2.69838736325667e-06    3.99041987636637e-06    1.72349181483964e-06
97                       6                       6                2.828427    6.51416010073237e-08    9.50437430287028e-08    7.46360307082665e-08
98                       6                       6                       0    2.28732687763845e-08    3.27687211158032e-08    3.75443642999998e-08
99                       8                       4                5.656854    1.07262084966636e-07    2.51738761315243e-07    8.92640079011909e-08
100                       8                       4                2.828427    9.54658856567799e-08    2.22473815735168e-07    1.43803351848735e-07
101                       8                       4                       0    1.17917943480763e-09    2.73765236485532e-09    2.57985394852316e-09
102                      10                       6                5.656854    1.70422828738705e-05    5.07246878848739e-05    2.30633355591718e-05
103                      10                       6                2.828427    3.09079331843417e-07    9.02684826478632e-07    7.39451158024201e-07
104                      10                       6                       0    8.65316151377164e-08    2.46726568082108e-07    2.89362597372252e-07
105                      12                       4                5.656854    2.12947791862365e-07    1.27451964408917e-06    4.66645694957915e-07
106                      12                       4                2.828427    1.67890732266124e-07    9.76651104211289e-07    6.48418217926021e-07
107                      12                       4                       0    1.91884751333974e-09    1.06332098950803e-08    1.02415232546533e-08
108                      14                       6                5.656854    9.49413508387988e-06    0.000141530747790471    6.65214324324711e-05
109                      14                       6                2.828427    1.70463283417196e-07    2.22766492201028e-06    1.88029622236344e-06
110                      14                       6                       0      4.736260161813e-08     5.4958211123539e-07    6.60586094895308e-07
111                      16                       4                5.656854    -1.9855670964022e-09     1.9055551630455e-06    7.04763843089681e-07
112                      16                       4                2.828427   -1.49351559636396e-09    1.42691354694482e-06    9.56869112249216e-07
113                      16                       4                       0   -1.60519976652331e-11    1.52556307965176e-08    1.48131283202281e-08
114                      18                       6                5.656854   -9.76505094812465e-06    0.000140700488866852    6.61024251068017e-05
115                      18                       6                2.828427   -1.74775685813152e-07    2.21661269303516e-06    1.87023687524569e-06
116                      18                       6                       0   -4.84460666231807e-08    5.47293881595467e-07    6.57605581218144e-07
117                      20                       4                5.656854   -2.13147462683689e-07    1.25954653113585e-06     4.6091847311231e-07
118                      20                       4                2.828427   -1.68217284350385e-07    9.66528270492743e-07    6.41377550825123e-07
119                      20                       4                       0    -1.9242190551429e-09    1.05384364579686e-08    1.01454265502907e-08
120                      22                       6                5.656854   -1.68468009034099e-05    4.97838240733566e-05    2.26138617410277e-05
121                      22                       6                2.828427    -3.0634798457085e-07    8.88431631141311e-07    7.27139934817424e-07
122                      22                       6                       0   -8.59731251649785e-08    2.43457513202406e-07    2.85299088505296e-07
123                      24                       4                5.656854   -1.05351608031552e-07    2.46053953430038e-07    8.71810259291848e-08
124                      24                       4                2.828427   -9.39792271436156e-08     2.1796229850941e-07    1.40782511982101e-07
125                      24                       4                       0    -1.1637560119403e-09    2.68923321802702e-09    2.53232726209783e-09
126                      26                       6                5.656854   -2.62948853999793e-06    3.87548057899765e-06    1.67200898798488e-06
127                      26                       6                2.828427   -6.36941637021472e-08    9.26287719239785e-08    7.26641619986273e-08
128                      26                       6                       0   -2.24454229504515e-08    3.20549687482837e-08    3.66888242485424e-08
129                      28                       4                5.656854   -9.27270906986808e-09    1.26235150171622e-08    4.35447569335888e-09
130                      28                       4                2.828427   -9.36525707395337e-09     1.2964337774186e-08    8.19291082219566e-09
131                      28                       4                       0    -7.1178851347052e-11    1.09203821935056e-10    1.00942066053925e-10
132                      30                       6                5.656854   -8.16028213965972e-08    7.42373018692311e-08    3.12487795667397e-08
133                      30                       6                2.828427   -2.58380731664032e-09    2.34694123908797e-09    1.81821095889426e-09
134                      30                       6                       0   -7.16059755667933e-10    6.65830695938614e-10     7.7330529982334e-10
135                       0                       8                5.656854    3.37426368921972e-10    1.09454632707981e-08    5.89956240452451e-09
136                       0                       8                2.828427    3.12603085946578e-10    1.10219086714656e-08    1.10241293384588e-08
137                       0                       8                       0    2.64473724356599e-12    1.02345137404005e-10     1.6002466041602e-10
138                       2                      10                5.656854    2.67293891703128e-06    1.35805580498214e-06    1.04794662040382e-06
139                       2                      10                2.828427    6.64197578668156e-08    3.40888046013309e-08    4.72692005701183e-08
140                       2                      10                       0    2.45279406212226e-08    1.26731844572862e-08    2.51296714666543e-08
141                       4                       8                5.656854     8.3709318049022e-07    7.43783122549695e-07    4.13216467400009e-07
142                       4                       8                2.828427    6.10387131462984e-07    5.39989907289913e-07    5.42889855793842e-07
143                       4                       8                       0    6.38988922215169e-09     5.5885625095869e-09    8.15241639559087e-09
144                       6                      10                5.656854    0.000211227602127524    0.000180362625038532    0.000147345444101203
145                       6                      10                2.828427    2.61983551681974e-06    2.21830808566118e-06    3.21533068013467e-06
146                       6                      10                       0    5.38512190335206e-07    4.52214023304212e-07    9.21964593964528e-07
147                       8                       8                5.656854    1.78393435059259e-05    2.99287985963925e-05    1.74400463089001e-05
148                       8                       8                2.828427    8.09300185007175e-06    1.31053112912018e-05     1.3732835824861e-05
149                       8                       8                       0    5.69266687446607e-08    8.94283387653632e-08    1.33429779072048e-07
150                      10                      10                5.656854     0.00200918035829507     0.00403025345561527     0.00360443447943342
151                      10                      10                2.828427     1.4767321940875e-05    2.80720450104802e-05    4.37228567237677e-05
152                      10                      10                       0    2.04494928066095e-06      3.671807216049e-06    7.91616671230814e-06
153                      12                       8                5.656854    4.53963232384078e-05    0.000209471964427849    0.000132605887434651
154                      12                       8                2.828427    1.51061372999093e-05    6.60886432760044e-05    7.37276829209291e-05
155                      12                       8                       0    8.59692012307207e-08    3.52942064668037e-07    5.51882414970384e-07
156                      14                      10                5.656854     0.00071903124321391      0.0108440075596089      0.0107315440724771
157                      14                      10                2.828427    5.90378392431162e-06     6.5422407876949e-05    0.000110249905848998
158                      14                      10                       0    8.97752261326591e-07    7.61318305532958e-06    1.73673572419509e-05
159                      16                       8                5.656854   -3.37994725783046e-07    0.000305467179824076    0.000198004835174039
160                      16                       8                2.828427   -1.09443676387749e-07    9.33652925120511e-05    0.000106497151266096
161                      16                       8                       0    -6.0071655299012e-10    4.86429124961241e-07    7.75380246960501e-07
162                      18                      10                5.656854   -0.000750092961091343      0.0108047705881779      0.0106821246919297
163                      18                      10                2.828427   -6.08533616697671e-06    6.52088517734715e-05    0.000109794601877903
164                      18                      10                       0   -9.18756650406535e-07    7.59204018524664e-06    1.73068526319181e-05
165                      20                       8                5.656854   -4.54315485645593e-05    0.000206869707302763    0.000130809561033486
166                      20                       8                2.828427   -1.51449589180673e-05    6.54430897805925e-05      7.293536420222e-05
167                      20                       8                       0    -8.6279849384216e-08    3.50157300694478e-07    5.47059762744221e-07
168                      22                      10                5.656854    -0.00198677760167316     0.00395881936190731     0.00353266159076948
169                      22                      10                2.828427   -1.46563104328931e-05     2.7676165089311e-05    4.30263953875616e-05
170                      22                      10                       0    -2.0341479830339e-06    3.63005534233592e-06    7.81471753971688e-06
171                      24                       8                5.656854   -1.74658304609187e-05    2.91618484464134e-05     1.6967426781104e-05
172                      24                       8                2.828427   -7.95841874539049e-06    1.28291944575169e-05    1.34253580057811e-05
173                      24                       8                       0   -5.61841577772679e-08    8.78788261062918e-08     1.3096032997976e-07
174                      26                      10                5.656854   -0.000205075904776259    0.000174663575053645    0.000142373191820719
175                      26                      10                2.828427    -2.5590950423001e-06    2.16130842137075e-06    3.12676793298244e-06
176                      26                      10                       0   -5.28582980176114e-07    4.42714883297127e-07    9.01127135404233e-07
177                      28                       8                5.656854   -8.10507127940365e-07    7.18747549573123e-07    3.98708037732603e-07
178                      28                       8                2.828427   -5.93535920641629e-07    5.24036912427441e-07    5.26123374938103e-07
179                      28                       8                       0   -6.24078255387728e-09     5.4474541227345e-09    7.93595878769629e-09
180                      30                      10                5.656854   -2.57826341010122e-06    1.30957036840569e-06    1.00867324594689e-06
181                      30                      10                2.828427   -6.43367909751684e-08    3.30002085439192e-08    4.56846887368496e-08
182                      30                      10                       0   -2.38699809438796e-08    1.23196422724908e-08    2.43896559181634e-08
183                       0                      12                5.656854    4.01008422238785e-09    5.12535336745473e-08    6.11569260347671e-08
184                       0                      12                2.828427    3.12657856860891e-09    5.04214847483012e-08    1.07685759247569e-07
185                       0                      12                       0    2.92046164737973e-11    4.99834437909442e-10    1.74378801252561e-09
186                       2                      14                5.656854     1.5350565212545e-05    2.21495747847088e-06    6.02168141380996e-06
187                       2                      14                2.828427    3.23746210921856e-07    4.96275992189434e-08    2.31672460398965e-07
188                       2                      14                       0    1.02458861661597e-07     1.6238641543479e-08    1.04896605435634e-07
189                       4                      12                5.656854     1.8160652887964e-05    6.93663838504671e-06    9.17272120177695e-06
190                       4                      12                2.828427    8.71088576426888e-06    3.46113585030178e-06    7.91078490390212e-06
191                       4                      12                       0    6.41164327121656e-08    2.62864661628075e-08     8.2861934623604e-08
192                       6                      14                5.656854     0.00224865599838836    0.000472364623874415     0.00160043455160273
193                       6                      14                2.828427    1.81855385211917e-05    4.32737271030432e-06    2.28645182529351e-05
194                       6                      14                       0     2.6464439039695e-06    6.77174960263655e-07     4.6359752536225e-06
195                       8                      12                5.656854    0.000904150961471879    0.000708481975007938     0.00104235118677044
196                       8                      12                2.828427    0.000170723324935668    0.000132196770007024    0.000326343350565099
197                       8                      12                       0    6.52595179152947e-07    4.97792484609204e-07    1.65876874028106e-06
198                      10                      14                5.656854     0.00870841907292403     0.00601353550971907    -0.00554874506815841
199                      10                      14                2.828427    0.000102732332278241    6.21937051698668e-05    0.000372547823090378
200                      10                      14                       0    9.56759407019461e-06    5.62757834340134e-06    4.20367612152104e-05
201                      12                      12                5.656854      0.0015826291439298     0.00433684364877756     0.00746025099103109