ITEM: TIMESTEP
0
ITEM: NUMBER OF ATOMS
422
ITEM: BOX BOUNDS ff ff ff
0.0000000000000000e+00 2.3200000000000000e+02
0.0000000000000000e+00 2.3200000000000000e+02
0.0000000000000000e+00 2.3200000000000000e+02
ITEM: ATOMS id xu yu zu fx fy fz
1        113.180830852956        116.018419474795        108.691752659117      0.0152779956209959    -0.00255691612825082      -0.674183573616224
2        118.843279972578        116.005021374141        108.672649132507      0.0069011433114699   -0.000542454877382214      -0.121636024989114
3        117.365273117027        115.950723235875         108.61978212311    -0.00899590427797021     0.00223749018015394       0.362876676118832
4        114.586229805747        116.000109709734        108.672011766798     -0.0284747968450206     0.00522735760613199      -0.539291667737474
5        116.677603899317        114.726253581712        108.633382731548     0.00558855063247861   -0.000256622308182785      -0.319263387863022
6        115.225132403144        114.698598020988        108.607159412276      0.0147566038541648    -0.00838728013311166       0.635803177526694
7        115.234822043399        117.185502383759        108.619334178371      0.0186330723770034     0.00528598523816234       0.494168694734352
8        116.661010599378        117.186875004539        108.619274557956     0.00147953793676627    -0.00284888833427575      -0.262264992632915
9         114.50520054173        113.535889862147        108.644297620972     -0.0034655196902946    -0.00465829844474107       -0.13742836141122
10        117.452302068904        113.543149990059        108.648602586172    -0.00359520744148742     0.00136868346125236       0.132454348756242
11        114.515823020153        118.424305121273         108.65981346938    -0.00304888655295776     0.00176309186256311      -0.131644611246775
12        117.410025813177        118.378666516701        108.611219702522    -0.00450701510658408    -0.00150642710572281        0.31246830660193
13        113.119879141803        113.555012469465        108.649421881567     0.00187181432996233    0.000798442109573838      -0.309980884324134
14        113.131911852385        118.414017806546        108.666317044271     0.00310554114616793   -0.000821407124325109     -0.0380234713837254
15        118.885659091214        113.602883158618        108.691544865046     0.00437007049418218    -0.00219790112328614      -0.277923382432199
16        118.852427560236         118.41662425932         108.66317578874     0.00357813514302278    0.000563155654644861      -0.029212240050537
17        112.405550759678        117.173074865179        108.635608921539     -0.0104774732208988      0.0132439941421738       0.550694089041102
18        112.398342022724        114.740392779048        108.625966963984    0.000132534243804736     -0.0081581476056136       0.677246293918946
19        119.567211015784        114.799016931364        108.677443819091    -0.00202105261198737    0.000900629413419163       0.142682803907965
20        119.581773169939         117.23905243787        108.694439194911    -0.00058919860973272    -0.00124270458674625       -0.23815511129209
21        120.974241344689        114.843541407887        108.675960322065   -0.000797389854776641     0.00216368466152807     -0.0371704246387223
22        120.979254922972        117.184751790297        108.683317560721   -0.000668366841547139   -0.000256105309447428      0.0451122540365353
23        111.032130993441        114.825964149772         108.66835932028    -0.00376050583735511     0.00980306898055967      -0.350533459407027
24        111.020025518482         117.15005547761        108.658597505336     0.00134748206414298    -0.00338971655590509     0.00994612772685405
25        121.602763832732         116.00803445011        108.672891371992    0.000286237077124833    8.23669915452679e-05     -0.0181065765457304
26        110.411693680879        116.005753085072        108.681857106407    -0.00491401256139254    -0.00157993820623857     -0.0967259654409333
27        121.605567139519        118.182293234622        108.653225093695     0.00119853339755376    0.000811847939899753       0.051857100118016
28        121.600181040526         113.78470032352        108.643432753825    0.000776265521642295    -0.00151232244545549      0.0641672481388817
29        110.374860436041         118.18967117261        108.671899685313   -0.000222520859925892    4.81446567399304e-05     -0.0145551052570413
30        110.321833618495        113.744437544965        108.614466628235   -0.000876825948611955    -0.00577999347618985       0.127550204468998
31        112.557394549385        112.572982527236        108.614381727143    -0.00200997989746633    -0.00285595318215021       0.112305848147653
32        112.634962286354        119.392342106964        108.698712785754   -0.000388586469773417     0.00165932787616121     -0.0560712173257684
33        119.404503192082        112.646453393762        108.681043659131   -0.000510946229563648   -0.000929711852590848      0.0594315221044734
34        119.389115928113         119.37285798136        108.672419720971   -9.79758005604659e-05    6.55587478727503e-05    -0.00109336727523631
35        114.954151564761        112.560825555774        108.648718991894   -0.000139422257826244    -0.00015371370098451      -0.019742061790906
36        114.962521756209        119.408818793668        108.663950647527   -0.000151832810061798    -2.1336852602559e-06      0.0169014154475376
37        117.007982203159        112.561015188877        108.646844279137    0.000317757194597886   -0.000130479092218239    -0.00741496023603628
38        116.998047554965        119.390703588019        108.643771097434    9.21453807142694e-05     0.00374428575569665      -0.115245263898181
39                     100                     100              105.656854                       0                       0                       0
40                     100                     100              102.828427                       0                       0                       0
41                     100                     100                     100                       0                       0                       0
42                     102                     102              105.656854                       0                       0                       0
43                     102                     102              102.828427                       0                       0                       0
44                     102                     102                     100                       0                       0                       0
45                     104                     100              105.656854                       0                       0                       0
46                     104                     100              102.828427                       0                       0                       0
47                     104                     100                     100                       0                       0                       0
48                     106                     102              105.656854                       0                       0                       0
49                     106                     102              102.828427                       0                       0                       0
50                     106                     102                     100                       0                       0                       0
51                     108                     100              105.656854                       0                       0                       0
52                     108                     100              102.828427                       0                       0                       0
53                     108                     100                     100                       0                       0                       0
54                     110                     102              105.656854                       0                       0                       0
55                     110                     102              102.828427                       0                       0                       0
56                     110                     102                     100                       0                       0                       0
57                     112                     100              105.656854                       0                       0                       0
58                     112                     100              102.828427                       0                       0                       0
59                     112                     100                     100                       0                       0                       0
60                     114                     102              105.656854                       0                       0                       0
61                     114                     102              102.828427                       0                       0                       0
62                     114                     102                     100                       0                       0                       0
63                     116                     100              105.656854                       0                       0                       0
64                     116                     100              102.828427                       0                       0                       0
65                     116                     100                     100                       0                       0                       0
66                     118                     102              105.656854                       0                       0                       0
67                     118                     102              102.828427                       0                       0                       0
68                     118                     102                     100                       0                       0                       0
69                     120                     100              105.656854                       0                       0                       0
70                     120                     100              102.828427                       0                       0                       0
71                     120                     100                     100                       0                       0                       0
72                     122                     102              105.656854                       0                       0                       0
73                     122                     102              102.828427                       0                       0                       0
74                     122                     102                     100                       0                       0                       0
75                     124                     100              105.656854                       0                       0                       0
76                     124                     100              102.828427                       0                       0                       0
77                     124                     100                     100                       0                       0                       0
78                     126                     102              105.656854                       0                       0                       0
79                     126                     102              102.828427                       0                       0                       0
80                     126                     102                     100                       0                       0                       0
81                     128                     100              105.656854                       0                       0                       0
82                     128                     100              102.828427                       0                       0                       0
83                     128                     100                     100                       0                       0                       0
84                     130                     102              105.656854                       0                       0                       0
85                     130                     102              102.828427                       0                       0                       0
86                     130                     102                     100                       0                       0                       0
87                     100                     104              105.656854                       0                       0                       0
88                     100                     104              102.828427                       0                       0                       0
89                     100                     104                     100                       0                       0                       0
90                     102                     106              105.656854                       0                       0                       0
91                     102                     106              102.828427                       0                       0                       0
92                     102                     106                     100                       0                       0                       0
93                     104                     104              105.656854                       0                       0                       0
94                     104                     104              102.828427                       0                       0                       0
95                     104                     104                     100                       0                       0                       0
96                     106                     106              105.656854                       0                       0                       0
97                     106                     106              102.828427                       0                       0                       0
98                     106                     106                     100                       0                       0                       0
99                     108                     104              105.656854                       0                       0                       0
100                     108                     104              102.828427                       0                       0                       0
101                     108                     104                     100                       0                       0                       0
102                     110                     106              105.656854                       0                       0                       0
103                     110                     106              102.828427                       0                       0                       0
104                     110                     106                     100                       0                       0                       0
105                     112                     104              105.656854                       0                       0                       0
106                     112                     104              102.828427                       0                       0                       0
107                     112                     104                     100                       0                       0                       0
108                     114                     106              105.656854                       0                       0                       0
109                     114                     106              102.828427                       0                       0                       0
110                     114                     106                     100                       0                       0                       0
111                     116                     104              105.656854                       0                       0                       0
112                     116                     104              102.828427                       0                       0                       0
113                     116                     104                     100                       0                       0                       0
114                     118                     106              105.656854                       0                       0                       0
115                     118                     106              102.828427                       0                       0                       0
116                     118                     106                     100                       0                       0                       0
117                     120                     104              105.656854                       0                       0                       0
118                     120                     104              102.828427                       0                       0                       0
119                     120                     104                     100                       0                       0                       0
120                     122                     106              105.656854                       0                       0                       0
121                     122                     106              102.828427                       0                       0                       0
122                     122                     106                     100                       0                       0                       0
123                     124                     104              105.656854                       0                       0                       0
124                     124                     104              102.828427                       0                       0                       0
125                     124                     104                     100                       0                       0                       0
126                     126                     106              105.656854                       0                       0                       0
127                     126                     106              102.828427                       0                       0                       0
128                     126                     106                     100                       0                       0                       0
129                     128                     104              105.656854                       0                       0                       0
130                     128                     104              102.828427                       0                       0                       0
131                     128                     104                     100                       0                       0                       0
132                     130                     106              105.656854                       0                       0                       0
133                     130                     106              102.828427                       0                       0                       0
134                     130                     106                     100                       0                       0                       0
135                     100                     108              105.656854                       0                       0                       0
136                     100                     108              102.828427                       0                       0                       0
137                     100                     108                     100                       0                       0                       0
138                     102                     110              105.656854                       0                       0                       0
139                     102                     110              102.828427                       0                       0                       0
140                     102                     110                     100                       0                       0                       0
141                     104                     108              105.656854                       0                       0                       0
142                     104                     108              102.828427                       0                       0                       0
143                     104                     108                     100                       0                       0                       0
144                     106                     110              105.656854                       0                       0                       0
145                     106                     110              102.828427                       0                       0                       0
146                     106                     110                     100                       0                       0                       0
147                     108                     108              105.656854                       0                       0                       0
148                     108                     108              102.828427                       0                       0                       0
149                     108                     108                     100                       0                       0                       0
150                     110                     110              105.656854                       0                       0                       0
151                     110                     110              102.828427                       0                       0                       0
152                     110                     110                     100                       0                       0                       0
153                     112                     108              105.656854                       0                       0                       0
154                     112                     108              102.828427                       0                       0                       0
155                     112                     108                     100                       0                       0                       0
156                     114                     110              105.656854                       0                       0                       0
157                     114                     110              102.828427                       0                       0                       0
158                     114                     110                     100                       0                       0                       0
159                     116                     108              105.656854                       0                       0                       0
160                     116                     108              102.828427                       0                       0                       0
161                     116                     108                     100                       0                       0                       0
162                     118                     110              105.656854                       0                       0                       0
163                     118                     110              102.828427                       0                       0                       0
164                     118                     110                     100                       0                       0                       0
165                     120                     108              105.656854                       0                       0                       0
166                     120                     108              102.828427                       0                       0                       0
167                     120                     108                     100                       0                       0                       0
168                     122                     110              105.656854                       0                       0                       0
169                     122                     110              102.828427                       0                       0                       0
170                     122                     110                     100                       0                       0                       0
171                     124                     108              105.656854                       0                       0                       0
172                     124                     108              102.828427                       0                       0                       0
173                     124                     108                     100                       0                       0                       0
174                     126                     110              105.656854                       0                       0                       0
175                     126                     110              102.828427                       0                       0                       0
176                     126                     110                     100                       0                       0                       0
177                     128                     108              105.656854                       0                       0                       0
178                     128                     108              102.828427                       0                       0                       0
179                     128                     108                     100                       0                       0                       0
180                     130                     110              105.656854                       0                       0                       0
181                     130                     110              102.828427                       0                       0                       0
182                     130                     110                     100                       0                       0                       0
183                     100                     112              105.656854                       0                       0                       0
184                     100                     112              102.828427                       0                       0                       0
185                     100                     112                     100                       0                       0                       0
186                     102                     114              105.656854                       0                       0                       0
187                     102                     114              102.828427                       0                       0                       0
188                     102                     114                     100                       0                       0                       0
189                     104                     112              105.656854                       0                       0                       0
190                     104                     112              102.828427                       0                       0                       0
191                     104                     112                     100                       0                       0                       0
192                     106                     114              105.656854                       0                       0                       0
193                     106                     114              102.828427                       0                       0                       0
194                     106                     114                     100                       0                       0                       0
195                     108                     112              105.656854                       0                       0                       0
196                     108                     112              102.828427                       0                       0                       0
197                     108                     112                     100                       0                       0                       0
198                     110                     114              105.656854                       0                       0                       0
199                     110                     114              102.828427                       0                       0                       0
200                     110                     114                     100                       0                       0                       0
201                     112                     112              105.656854                       0                       0                       0