ITEM: TIMESTEP
0
ITEM: NUMBER OF ATOMS
422
ITEM: BOX BOUNDS pp pp pp
0.0000000000000000e+00 3.2000000000000000e+01
0.0000000000000000e+00 3.2000000000000000e+01
0.0000000000000000e+00 3.2000000000000000e+01
ITEM: ATOMS id xu yu zu fx fy fz
1        13.1752963856785        16.0128850075172         8.6862141918399       -1.37253825337325       -1.70639917815068      -0.107519543378521
2        18.8028776505475        15.9646190521107        8.63224281047635        4.63693178678165        4.10505660941693       0.932869079696119
3        17.4468519557364        16.0323020745844        8.70135696181944       -6.98600855074505       -6.95868704531024       -1.61062188992738
4        14.5684558127311        15.9823357167179        8.65423377378203      -0.854889735499635       -2.06457828391553      -0.366761525301741
5        16.6663865740232        14.7150362564177        8.62216140625398         3.3221234938025          3.854449135177       0.915407190425568
6        15.2402356627397        14.7137012805842        8.62225867187232       0.568442144174772        1.24978944793759         0.1022278427494
7        15.2303156909063        17.1809960312665        8.61482382587878        4.14115549086091        3.11543674000193       0.708021386218906
8        16.6847146036145        17.2105790087755        8.64297456219292       0.724143568512646        1.07286924872868       0.262587445414587
9        14.4855823723217        13.5162716927394        8.62467545156432       0.294625941083993        1.22948293239102        0.10726437509827
10        17.4465774791842        13.5374254003389        8.64287399645283       -0.11506963709158       0.643486692648898      -0.195727545325498
11        14.5147017678139         18.423183868934        8.65868821704096       -1.54641781754799      -0.607719695117126      -0.451299936357357
12        17.4443159223904        18.4129566259141        8.64550581173524       0.719113133849013       0.974835129645426       0.192303538072152
13        13.0945222101289        13.5296555377907        8.62406094989314        1.98326439489283        2.83093879641854       0.185993935167421
14        13.0864899201289        18.3685958742895        8.62089111201519        4.36508357439528        5.35332204163368       0.659493879670513
15        18.8174747714895        13.5346988388935        8.62335654532145        1.59132873500012        1.53705519199706       0.163831868025493
16        18.8604231669449        18.4246198660291        8.67116739544864       -2.07149257657722       -1.88073988593539      -0.183389104623628
17         12.471485405224         17.239009510725        8.70153956708506       -5.06091691785028       -4.52411804049747      -0.617379825350538
18         12.429599984573        14.7716507408969        8.65722092583344        1.30440223110984        1.38998753874952       0.362992461700983
19        19.5253696398676        14.7571755554474        8.63559844317532        1.74160562248924        2.00024832956379       0.465359824534168
20        19.5692465746432        17.2265258425745        8.68190859961497      -0.709003094851839       -1.79117964125219      -0.157550603838981
21        20.9961355350937         14.865435598292        8.69785051246962       -5.18253040248839       -5.60453937191531       -1.34601150768412
22        21.0016704620258        17.2071673293508        8.70572909977504        -4.5764585556734       -5.44473058341822      -0.511309243778957
23         11.054334821296        14.8481679776274        8.69055914813487       -6.18934314437643       -7.00126408446897       -1.15733845683668
24        11.0192299218788        17.1492598810071        8.65779790873346        1.01993868506018       0.573022179284996       0.340373795627578
25        21.6171105476634        16.0223811650416        8.68723408692389        1.90160915646321        1.05209800655062       0.417383171365897
26        10.3998043631148        15.9938637673077        8.66996378864322        1.30813816028464      -0.360383649081613       0.201992093803463
27        21.6098718455789        18.1865979406812        8.65752579975487        2.79319922176989        3.69961195276031      0.0682965715031471
28        21.5787126696314         13.763231952626        8.62196038293126        1.40182054255104        3.11062557971422       0.509706753039831
29        10.3168085142386        18.1316192508074        8.61384376351111        0.36819637831407        1.22282374663712    -0.00414536601326642
30         10.328056119476        13.7506600459453        8.62068512921555        4.15047782021009         5.5262776335248       0.672956135354667
31        12.6303392023648        12.6459271802155         8.6873223801222       -1.59099418393063       -2.10330589706965     -0.0100605789693259
32        12.5991591382962        19.3565389589061        8.66290563769688      -0.386547324199302      -0.821190229363457      -0.184187326905864
33        19.3737625009066         12.615712702586         8.6502989679547      -0.170924412573191      -0.431485083766792     -0.0144401292012671
34        19.3372562618305         19.320998315077        8.62055605468806        1.07113384209342        1.82009615575635       0.121784299395852
35        15.0032845199188        12.6099585109315        8.69784794705194      -0.417624252855342       -1.23515083751349      -0.124913399344332
36        14.9972291743848        19.4435262118437        8.69865406570283      -0.966684044789034       -1.44490155185662       -0.12103320480256
37        17.0568770048297        12.6099099905474        8.69573508080815       -1.10930374611451       -1.85631345883709      -0.039762848439338
38        17.0252111575395        19.4178671905931         8.6709307000085     -0.0999872731622477      -0.524826571068642       -0.18739361078467
39                       0                       0                5.656854                       0                       0                       0
40                       0                       0                2.828427                       0                       0                       0
41                       0                       0                       0                       0                       0                       0
42                       2                       2                5.656854                       0                       0                       0
43                       2                       2                2.828427                       0                       0                       0
44                       2                       2                       0                       0                       0                       0
45                       4                       0                5.656854                       0                       0                       0
46                       4                       0                2.828427                       0                       0                       0
47                       4                       0                       0                       0                       0                       0
48                       6                       2                5.656854                       0                       0                       0
49                       6                       2                2.828427                       0                       0                       0
50                       6                       2                       0                       0                       0                       0
51                       8                       0                5.656854                       0                       0                       0
52                       8                       0                2.828427                       0                       0                       0
53                       8                       0                       0                       0                       0                       0
54                      10                       2                5.656854                       0                       0                       0
55                      10                       2                2.828427                       0                       0                       0
56                      10                       2                       0                       0                       0                       0
57                      12                       0                5.656854                       0                       0                       0
58                      12                       0                2.828427                       0                       0                       0
59                      12                       0                       0                       0                       0                       0
60                      14                       2                5.656854                       0                       0                       0
61                      14                       2                2.828427                       0                       0                       0
62                      14                       2                       0                       0                       0                       0
63                      16                       0                5.656854                       0                       0                       0
64                      16                       0                2.828427                       0                       0                       0
65                      16                       0                       0                       0                       0                       0
66                      18                       2                5.656854                       0                       0                       0
67                      18                       2                2.828427                       0                       0                       0
68                      18                       2                       0                       0                       0                       0
69                      20                       0                5.656854                       0                       0                       0
70                      20                       0                2.828427                       0                       0                       0
71                      20                       0                       0                       0                       0                       0
72                      22                       2                5.656854                       0                       0                       0
73                      22                       2                2.828427                       0                       0                       0
74                      22                       2                       0                       0                       0                       0
75                      24                       0                5.656854                       0                       0                       0
76                      24                       0                2.828427                       0                       0                       0
77                      24                       0                       0                       0                       0                       0
78                      26                       2                5.656854                       0                       0                       0
79                      26                       2                2.828427                       0                       0                       0
80                      26                       2                       0                       0                       0                       0
81                      28                       0                5.656854                       0                       0                       0
82                      28                       0                2.828427                       0                       0                       0
83                      28                       0                       0                       0                       0                       0
84                      30                       2                5.656854                       0                       0                       0
85                      30                       2                2.828427                       0                       0                       0
86                      30                       2                       0                       0                       0                       0
87                       0                       4                5.656854                       0                       0                       0
88                       0                       4                2.828427                       0                       0                       0
89                       0                       4                       0                       0                       0                       0
90                       2                       6                5.656854                       0                       0                       0
91                       2                       6                2.828427                       0                       0                       0
92                       2                       6                       0                       0                       0                       0
93                       4                       4                5.656854                       0                       0                       0
94                       4                       4                2.828427                       0                       0                       0
95                       4                       4                       0                       0                       0                       0
96                       6                       6                5.656854                       0                       0                       0
97                       6                       6                2.828427                       0                       0                       0
98                       6                       6                       0                       0                       0                       0
99                       8                       4                5.656854                       0                       0                       0
100                       8                       4                2.828427                       0                       0                       0
101                       8                       4                       0                       0                       0                       0
102                      10                       6                5.656854                       0                       0                       0
103                      10                       6                2.828427                       0                       0                       0
104                      10                       6                       0                       0                       0                       0
105                      12                       4                5.656854                       0                       0                       0
106                      12                       4                2.828427                       0                       0                       0
107                      12                       4                       0                       0                       0                       0
108                      14                       6                5.656854                       0                       0                       0
109                      14                       6                2.828427                       0                       0                       0
110                      14                       6                       0                       0                       0                       0
111                      16                       4                5.656854                       0                       0                       0
112                      16                       4                2.828427                       0                       0                       0
113                      16                       4                       0                       0                       0                       0
114                      18                       6                5.656854                       0                       0                       0
115                      18                       6                2.828427                       0                       0                       0
116                      18                       6                       0                       0                       0                       0
117                      20                       4                5.656854                       0                       0                       0
118                      20                       4                2.828427                       0                       0                       0
119                      20                       4                       0                       0                       0                       0
120                      22                       6                5.656854                       0                       0                       0
121                      22                       6                2.828427                       0                       0                       0
122                      22                       6                       0                       0                       0                       0
123                      24                       4                5.656854                       0                       0                       0
124                      24                       4                2.828427                       0                       0                       0
125                      24                       4                       0                       0                       0                       0
126                      26                       6                5.656854                       0                       0                       0
127                      26                       6                2.828427                       0                       0                       0
128                      26                       6                       0                       0                       0                       0
129                      28                       4                5.656854                       0                       0                       0
130                      28                       4                2.828427                       0                       0                       0
131                      28                       4                       0                       0                       0                       0
132                      30                       6                5.656854                       0                       0                       0
133                      30                       6                2.828427                       0                       0                       0
134                      30                       6                       0                       0                       0                       0
135                       0                       8                5.656854                       0                       0                       0
136                       0                       8                2.828427                       0                       0                       0
137                       0                       8                       0                       0                       0                       0
138                       2                      10                5.656854                       0                       0                       0
139                       2                      10                2.828427                       0                       0                       0
140                       2                      10                       0                       0                       0                       0
141                       4                       8                5.656854                       0                       0                       0
142                       4                       8                2.828427                       0                       0                       0
143                       4                       8                       0                       0                       0                       0
144                       6                      10                5.656854                       0                       0                       0
145                       6                      10                2.828427                       0                       0                       0
146                       6                      10                       0                       0                       0                       0
147                       8                       8                5.656854                       0                       0                       0
148                       8                       8                2.828427                       0                       0                       0
149                       8                       8                       0                       0                       0                       0
150                      10                      10                5.656854                       0                       0                       0
151                      10                      10                2.828427                       0                       0                       0
152                      10                      10                       0                       0                       0                       0
153                      12                       8                5.656854                       0                       0                       0
154                      12                       8                2.828427                       0                       0                       0
155                      12                       8                       0                       0                       0                       0
156                      14                      10                5.656854                       0                       0                       0
157                      14                      10                2.828427                       0                       0                       0
158                      14                      10                       0                       0                       0                       0
159                      16                       8                5.656854                       0                       0                       0
160                      16                       8                2.828427                       0                       0                       0
161                      16                       8                       0                       0                       0                       0
162                      18                      10                5.656854                       0                       0                       0
163                      18                      10                2.828427                       0                       0                       0
164                      18                      10                       0                       0                       0                       0
165                      20                       8                5.656854                       0                       0                       0
166                      20                       8                2.828427                       0                       0                       0
167                      20                       8                       0                       0                       0                       0
168                      22                      10                5.656854                       0                       0                       0
169                      22                      10                2.828427                       0                       0                       0
170                      22                      10                       0                       0                       0                       0
171                      24                       8                5.656854                       0                       0                       0
172                      24                       8                2.828427                       0                       0                       0
173                      24                       8                       0                       0                       0                       0
174                      26                      10                5.656854                       0                       0                       0
175                      26                      10                2.828427                       0                       0                       0
176                      26                      10                       0                       0                       0                       0
177                      28                       8                5.656854                       0                       0                       0
178                      28                       8                2.828427                       0                       0                       0
179                      28                       8                       0                       0                       0                       0
180                      30                      10                5.656854                       0                       0                       0
181                      30                      10                2.828427                       0                       0                       0
182                      30                      10                       0                       0                       0                       0
183                       0                      12                5.656854                       0                       0                       0
184                       0                      12                2.828427                       0                       0                       0
185                       0                      12                       0                       0                       0                       0
186                       2                      14                5.656854                       0                       0                       0
187                       2                      14                2.828427                       0                       0                       0
188                       2                      14                       0                       0                       0                       0
189                       4                      12                5.656854                       0                       0                       0
190                       4                      12                2.828427                       0                       0                       0
191                       4                      12                       0                       0                       0                       0
192                       6                      14                5.656854                       0                       0                       0
193                       6                      14                2.828427                       0                       0                       0
194                       6                      14                       0                       0                       0                       0
195                       8                      12                5.656854                       0                       0                       0
196                       8                      12                2.828427                       0                       0                       0
197                       8                      12                       0                       0                       0                       0
198                      10                      14                5.656854                       0                       0                       0
199                      10                      14                2.828427                       0                       0                       0
200                      10                      14                       0                       0                       0                       0
201                      12                      12                5.656854                       0                       0                       0