ITEM: TIMESTEP
0
ITEM: NUMBER OF ATOMS
422
ITEM: BOX BOUNDS pp pp pp
0.0000000000000000e+00 3.2000000000000000e+01
0.0000000000000000e+00 3.2000000000000000e+01
0.0000000000000000e+00 3.2000000000000000e+01
ITEM: ATOMS id xu yu zu fx fy fz
1        13.1021616589323         15.939750280771        8.61307946509368        4.38582091904827        4.62962081922966       0.686122664443697
2        18.7964532143348        15.9581946158981        8.62581837426366        6.01079716525077         5.8533423828777        1.32825783779912
3        17.4294669189972        16.0149170378452         8.6839719250802       -5.39423987880262       -5.23755420078696       -1.27887128749208
4         14.527794263282        15.9416741672688          8.613572224333        2.29930136986855        2.57455795445366       0.409462034464478
5        16.6802257771321        14.7288754595266        8.63600060936293        5.19357574551724        5.59656795187384        1.38714040023839
6        15.2943268990052        14.7677925168496        8.67634990813774       -5.69585805877213        -6.1812497663676       -1.31439584182504
7        15.2429705279302        17.1936508682903         8.6274786629026      0.0429444370755377      0.0493278407077128     -0.0041908324687511
8        16.6843906692237        17.2102550743847        8.64265062780215        1.47897318141551        2.26116854177038       0.484247627350284
9        14.4686568991895        13.4993462196073        8.60774997843215         4.2740320367528        4.45496230983301        1.15400923779381
10         17.506973441827        13.5978213629817        8.70326995909568       -7.79838249669995       -7.52704147860233       -1.14373013388716
11        14.4967250202775        18.4052071213976        8.64071146950454       0.909811329841296      -0.123933639617766       0.144922013242074
12        17.4671018854138        18.4357425889375        8.66829177475858       -2.66901151257084       -1.83418387773948      -0.264297795053041
13        13.0979856058379        13.5331189334997         8.6275243456021       0.583309524381152        1.51593967431793       0.413299814261068
14        13.1378968814266        18.4200028355873        8.67229807331296       -1.49835887487597       -1.49464565831886      -0.145023165784826
15        18.8029914521071        13.5202155195111        8.60887322593901        6.44516745397714          5.245407888883        1.02338650524519
16        18.8186244939849        18.3828211930691        8.62936872248861        4.45956963567982        4.73278526243446        1.00299191898819
17        12.4286247471578        17.1961488526587        8.65867890901878      -0.320219670816811       0.070231716958756     0.00354818388395217
18         12.474032332908        14.8160830892319        8.70165327416844        -6.6616871144056       -6.96203388156421       -1.05210281609297
19        19.5672470469657        14.7990529625456        8.67747585027348       -2.55396074850458       -3.34991065950093      -0.633210853150996
20        19.5666702802461        17.2239495481774        8.67933230521781       -2.99661532093503       -3.58723257801793      -0.855128176937504
21        21.0011815896859        14.8704816528842        8.70289656706183       -3.87537433245661       -4.92767471153295      -0.922637098923593
22        20.9822839057667        17.1877807730918          8.686342543516       0.528042909240101        1.08078928807717        0.23106896904298
23        11.0174890299983        14.8113221863298         8.6537133568372       -1.59127065671857        -2.5220418372428      0.0781240762762848
24        11.0347552805945        17.1647852397227        8.67332326744907       -4.01492832846824       -4.18538271878863      -0.714298070307735
25        21.6167083728682        16.0219789902465        8.68683191212875        1.56858477276208       0.514553900528836       0.149312331993503
26        10.3660060515837        15.9600654557765        8.63616547711209        2.73919378025954        2.51304761298631       0.429788546435681
27        21.6531632445929        18.2298893396952        8.70081719876888        -1.0057779306848       -1.08316408297271     -0.0121310574124459
28        21.5791310159005        13.7636502988951        8.62237872920036        1.16373070294541        3.16646121377441       0.546107088726642
29        10.3256927975485        18.1405035341173        8.62272804682101        1.07943475210266        1.81882228867591       0.340190464312183
30        10.3147185549831        13.7373224814524        8.60734756472265        3.28324785839316        3.31272711662733       0.355836529935085
31        12.5668348963587        12.5824228742093        8.62381807411601      -0.223501106766994       0.321151570451313      0.0523435336068027
32        12.6009550023992        19.3583348230091         8.6647015017999      0.0910165012775251       0.170239296370179      0.0763556294179825
33        19.3478510359308        12.5898012376102        8.62438750297888      -0.390366198462008      -0.397052585047449      -0.115273299772898
34        19.4111272123732        19.3948692656197        8.69442700523078       -1.66526794203713       -2.27185274194136      -0.358427924483354
35        15.0112076598373          12.61788165085        8.70577108697043        -1.0828696658981       -1.58132532365053      -0.236468203876346
36        14.9319140931375        19.3782111305963        8.63333898445551        0.47345008699211       0.182214389495328    -0.00658422267612559
37        16.9736478445909        12.5266808303087        8.61250592056937        2.50242821517646        3.23807587400125       0.563905291064123
38        17.0278654026665        19.4205214357201         8.6735849451355     -0.0506543655089189     -0.0529005215781009      0.0153660217889373
39                       0                       0                5.656854                       0                       0                       0
40                       0                       0                2.828427                       0                       0                       0
41                       0                       0                       0                       0                       0                       0
42                       2                       2                5.656854    6.23114539231956e-10    8.79608400631175e-10    2.21113369734826e-10
43                       2                       2                2.828427                       0                       0                       0
44                       2                       2                       0                       0                       0                       0
45                       4                       0                5.656854                       0                       0                       0
46                       4                       0                2.828427                       0                       0                       0
47                       4                       0                       0                       0                       0                       0
48                       6                       2                5.656854     1.8951755403504e-08    3.86080718967504e-08    9.89264141812462e-09
49                       6                       2                2.828427    6.70692517855645e-10    1.41763326987791e-09    7.11681394121607e-10
50                       6                       2                       0                       0                       0                       0
51                       8                       0                5.656854    6.85528432399066e-10    1.24660354281077e-10    4.83200015671678e-10
52                       8                       0                2.828427    4.07360327971988e-10    6.58869331708165e-11    5.16846381639081e-10
53                       8                       0                       0                       0                       0                       0
54                      10                       2                5.656854    8.00481924281107e-08    3.15021480654951e-07    8.27470011305348e-08
55                      10                       2                2.828427    2.71462851756832e-09    1.11109518946003e-08    5.70176044306065e-09
56                      10                       2                       0    9.85141195868752e-10    4.41357515176193e-09    3.41967741461536e-09
57                      12                       0                5.656854    1.35800948140523e-09     4.1140231389982e-10    2.23706126704014e-09
58                      12                       0                2.828427    1.64136587915819e-09    1.13497736484994e-09    5.56767052389198e-09
59                      12                       0                       0                       0                       0                       0
60                      14                       2                5.656854    4.75033412828542e-08    7.56862605839299e-07    2.02268426384527e-07
61                      14                       2                2.828427    1.63115795281723e-09    2.63557925160594e-08    1.36867834264232e-08
62                      14                       2                       0      7.703956254797e-10    1.12498148094075e-08    8.80600236167579e-09
63                      16                       0                5.656854    4.11104504763722e-12    4.69313572257263e-10    3.34088960382326e-09
64                      16                       0                2.828427    2.29899018670883e-10    1.55378108504566e-09    7.77649903404274e-09
65                      16                       0                       0                       0                       0                       0
66                      18                       2                5.656854   -4.91785332551841e-08    7.54888802043223e-07    2.02078439091051e-07
67                      18                       2                2.828427   -1.69422793502211e-09    2.62597961738037e-08    1.36501532434054e-08
68                      18                       2                       0   -8.18026443662123e-10     1.1236504837098e-08    8.80289764852761e-09
69                      20                       0                5.656854   -1.37602823635562e-09    2.90213025892814e-10    2.24535203650136e-09
70                      20                       0                2.828427   -1.53672641975894e-09   -6.68624184814362e-10    4.82599190799312e-09
71                      20                       0                       0                       0                       0                       0
72                      22                       2                5.656854     -7.928618105488e-08    3.02809601352772e-07    7.96941916395161e-08
73                      22                       2                2.828427   -2.88615050839309e-09    1.10699817745711e-08    5.67522159362264e-09
74                      22                       2                       0   -1.04996881919582e-09    4.40161544823852e-09    3.41151774991366e-09
75                      24                       0                5.656854   -6.92608667504381e-10    4.59801701690466e-11    4.83782573095022e-10
76                      24                       0                2.828427   -4.06799705605677e-10    1.76992182803671e-11    5.13262718098252e-10
77                      24                       0                       0                       0                       0                       0
78                      26                       2                5.656854   -1.76253389078822e-08    3.50821944003659e-08    9.03366367849975e-09
79                      26                       2                2.828427   -5.60347230890352e-10    1.12887516915449e-09    5.75172503600572e-10
80                      26                       2                       0                       0                       0                       0
81                      28                       0                5.656854                       0                       0                       0
82                      28                       0                2.828427                       0                       0                       0
83                      28                       0                       0                       0                       0                       0
84                      30                       2                5.656854   -5.52894378883281e-10    7.72373508920379e-10    1.94709353192671e-10
85                      30                       2                2.828427                       0                       0                       0
86                      30                       2                       0                       0                       0                       0
87                       0                       4                5.656854    2.43597240004137e-11    3.25506185211627e-10    9.87400707608658e-11
88                       0                       4                2.828427                       0                       0                       0
89                       0                       4                       0                       0                       0                       0
90                       2                       6                5.656854     1.0823109835901e-07    9.91416362456143e-08    3.67593813529736e-08
91                       2                       6                2.828427    4.04905642802814e-09    3.66879121779879e-09    2.65812110199165e-09
92                       2                       6                       0    1.22851956293168e-09    1.14320791140652e-09    1.27175619935768e-09
93                       4                       4                5.656854    1.20677612707135e-08    1.65444828760269e-08    5.01005974365851e-09
94                       4                       4                2.828427    1.46176428481809e-08    2.02605881610745e-08    1.19404313741258e-08
95                       4                       4                       0    1.65543823620758e-10    2.30980881624762e-10    2.09621068266707e-10
96                       6                       6                5.656854    3.55052202010637e-06    5.28917702596963e-06    2.00862071466325e-06
97                       6                       6                2.828427    9.78927308992692e-08    1.43622666039885e-07    1.05861606798513e-07
98                       6                       6                       0    3.78181145574691e-08    5.45250461224925e-08    5.97691397357603e-08
99                       8                       4                5.656854    1.36108694121342e-07    3.23382405326177e-07    1.00689805305307e-07
100                       8                       4                2.828427     1.3900499482144e-07    3.26977348701519e-07    1.97695752343923e-07
101                       8                       4                       0    1.88063838450074e-09    4.47335981466666e-09    4.01823687526176e-09
102                      10                       6                5.656854    2.25077952287418e-05    6.83165035484581e-05    2.73481628073145e-05
103                      10                       6                2.828427    4.67746518309049e-07    1.39413705635817e-06    1.07221297953809e-06
104                      10                       6                       0    1.41390078596992e-07    4.11206669493696e-07    4.62843847503417e-07
105                      12                       4                5.656854    2.60733957825854e-07    1.62196624365136e-06    5.21966935076849e-07
106                      12                       4                2.828427    2.36451551188726e-07    1.42388112935569e-06    8.84721469698691e-07
107                      12                       4                       0    2.98758230513961e-09    1.74366012090952e-08    1.59674689858724e-08
108                      14                       6                5.656854    1.14653655778802e-05    0.000186932254887373    7.73818625876561e-05
109                      14                       6                2.828427    2.38980927723448e-07    3.40194440989603e-06    2.69236092926244e-06
110                      14                       6                       0    7.27639832345341e-08    9.06927338655671e-07    1.04555338701327e-06
111                      16                       4                5.656854    1.18577869947302e-09    2.39104962428546e-06    7.79110794190869e-07
112                      16                       4                2.828427   -8.27688151747262e-10    2.05378572783275e-06    1.28996390269188e-06
113                      16                       4                       0   -3.19806645777116e-11    2.43769532427287e-08    2.25829333452193e-08
114                      18                       6                5.656854   -1.21814822961785e-05    0.000187106383519923     7.7645351564648e-05
115                      18                       6                2.828427   -2.52976421022756e-07    3.38275463417926e-06    2.68394612139689e-06
116                      18                       6                       0   -7.72105848705343e-08    8.97844394740451e-07    1.03704851425649e-06
117                      20                       4                5.656854   -2.68532205043731e-07    1.59401170873811e-06    5.13759029535925e-07
118                      20                       4                2.828427   -2.42254885296911e-07    1.39686897164314e-06    8.69535421682661e-07
119                      20                       4                       0   -3.01125526363373e-09    1.69137418681134e-08     1.5546411454158e-08
120                      22                       6                5.656854   -2.21566995962983e-05    6.49941149221395e-05      2.604707209241e-05
121                      22                       6                2.828427   -4.61599204625091e-07    1.33150007217128e-06    1.02507845496127e-06
122                      22                       6                       0   -1.39564661627822e-07    3.93430940133975e-07    4.43580758870879e-07
123                      24                       4                5.656854   -1.30291690167415e-07    3.02598360172292e-07    9.43614115368385e-08
124                      24                       4                2.828427   -1.32969652158629e-07    3.06419749334772e-07    1.85427690492707e-07
125                      24                       4                       0    -1.7964787258813e-09    4.12836629633328e-09    3.72688292456582e-09
126                      26                       6                5.656854   -3.27055169750877e-06    4.79995700803289e-06    1.82472830708444e-06
127                      26                       6                2.828427   -9.07584391756969e-08    1.31291913294272e-07    9.67018665449302e-08
128                      26                       6                       0    -3.4872627426511e-08    4.95837272612753e-08    5.44762256364862e-08
129                      28                       4                5.656854   -1.10171190735208e-08    1.49410596163483e-08    4.53349692007193e-09
130                      28                       4                2.828427   -1.34103842889863e-08    1.83822593011897e-08    1.08272396141839e-08
131                      28                       4                       0   -1.51019147408981e-10    2.07612560329528e-10    1.88354945408751e-10
132                      30                       6                5.656854   -9.66963467955201e-08    8.84369319778676e-08    3.28037815597666e-08
133                      30                       6                2.828427   -3.64140346962744e-09    3.28195356326264e-09    2.37269289604007e-09
134                      30                       6                       0   -1.08795340713226e-09    1.00304253758314e-09    1.11398791902965e-09
135                       0                       8                5.656854    1.31459952875135e-09    1.32422239038311e-08    6.29566342203332e-09
136                       0                       8                2.828427    1.58013119242733e-09    1.51440589847719e-08    1.42219436271269e-08
137                       0                       8                       0    1.97293791837685e-11    1.59352942199674e-10    2.38753249149327e-10
138                       2                      10                5.656854    3.50974825942276e-06    1.76245317455797e-06    1.20882594517009e-06
139                       2                      10                2.828427    9.90569760410885e-08    5.03335071382953e-08    6.62113030428021e-08
140                       2                      10                       0    3.96449564146737e-08    2.02665773194259e-08    3.89992668374441e-08
141                       4                       8                5.656854    1.11999963617532e-06    9.94358779863807e-07    4.87566214783331e-07
142                       4                       8                2.828427    9.29185303237086e-07    8.21112028245046e-07    7.78206354158726e-07
143                       4                       8                       0    1.07358025037313e-08    9.43549715600056e-09    1.31601984312399e-08
144                       6                      10                5.656854    0.000305231146561433    0.000260140665526897    0.000189092011276881
145                       6                      10                2.828427    4.29430600955156e-06    3.62894896419197e-06    5.00001726487658e-06
146                       6                      10                       0    9.32417582013821e-07    7.80394090120863e-07    1.54472150582299e-06
147                       8                       8                5.656854    2.49674566996956e-05    4.24794198841947e-05    2.18525738931457e-05
148                       8                       8                2.828427    1.29273455744186e-05     2.1199120422003e-05    2.09442732733673e-05
149                       8                       8                       0    9.70712644317497e-08    1.53643983263478e-07    2.21152686795767e-07
150                      10                      10                5.656854      0.0029711848213865     0.00601054069358471     0.00479007480287555
151                      10                      10                2.828427    2.51779275746645e-05    4.86929296088119e-05    7.21628715353625e-05
152                      10                      10                       0    3.62274817968416e-06    6.57734645254064e-06      1.376416724826e-05
153                      12                       8                5.656854    6.26574048515484e-05     0.00030276508940214    0.000169469207736929
154                      12                       8                2.828427    2.39118919905101e-05    0.000108957001986833    0.000114543177243098
155                      12                       8                       0     1.4443498842852e-07    6.13720896802733e-07     9.2455236358111e-07
156                      14                      10                5.656854    0.000906410540007938      0.0153265231526181      0.0134005802872296
157                      14                      10                2.828427    8.71894017052477e-06    0.000114014036715945    0.000182095157256428
158                      14                      10                       0    1.45482979033271e-06    1.36441642810227e-05    3.01239213365518e-05
159                      16                       8                5.656854    9.97506680013986e-07    0.000430607878528069    0.000247308359736887
160                      16                       8                2.828427   -1.65414576433962e-07    0.000150933599317771    0.000162233220176669
161                      16                       8                       0     -2.776138424061e-09    8.33375024684474e-07    1.27942878876237e-06
162                      18                      10                5.656854    -0.00101028090096476      0.0152023678300608      0.0133406333795626
163                      18                      10                2.828427   -9.65182264118611e-06    0.000112245130936482    0.000180176146444709
164                      18                      10                       0   -1.59383124457875e-06    1.34167134396602e-05    2.97024230884819e-05
165                      20                       8                5.656854   -6.48931595324542e-05    0.000295032985298228    0.000165534750162153
166                      20                       8                2.828427   -2.44844273371226e-05    0.000106035679586941    0.000111766518438986
167                      20                       8                       0    -1.4685879531027e-07    5.96720963744263e-07    9.00942343479927e-07
168                      22                      10                5.656854    -0.00289412703474414      0.0056749329227312     0.00451584313809377
169                      22                      10                2.828427   -2.46186364620438e-05    4.61346381415151e-05    6.83066473789864e-05
170                      22                      10                       0   -3.55003712249904e-06    6.27185718713707e-06    1.31239452131753e-05
171                      24                       8                5.656854   -2.33948027089491e-05    3.89143302177079e-05    2.00148351741777e-05
172                      24                       8                2.828427   -1.22468813958878e-05    1.96599545139458e-05    1.93988531588325e-05
173                      24                       8                       0   -9.27367636403073e-08    1.44039617604338e-07    2.07109919319154e-07
174                      26                      10                5.656854   -0.000274885639363447    0.000232630782485265    0.000168178025542482
175                      26                      10                2.828427   -3.94037031696455e-06    3.30664492495923e-06    4.52542117930939e-06
176                      26                      10                       0    -8.6939350692241e-07    7.22545098528599e-07    1.42222664961577e-06
177                      28                       8                5.656854   -1.00317550363383e-06     8.8565274246696e-07    4.33574001001116e-07
178                      28                       8                2.828427   -8.41613184568854e-07     7.3945069649432e-07    6.98017197645098e-07
179                      28                       8                       0   -9.84997244711586e-09    8.60613917064955e-09    1.19558635862518e-08
180                      30                      10                5.656854   -3.12731269562868e-06    1.58417598495145e-06    1.07743133438228e-06
181                      30                      10                2.828427   -8.90318679866326e-08    4.55849139761449e-08    5.93448789476284e-08
182                      30                      10                       0   -3.61152717228736e-08    1.85324297486148e-08    3.53178532945124e-08
183                       0                      12                5.656854    1.14307617485931e-08    6.24306449094739e-08    6.61226733169834e-08
184                       0                      12                2.828427    1.22782093085224e-08    6.98903182033011e-08    1.41023610663283e-07
185                       0                      12                       0    1.74966819961316e-10    1.04190018413891e-09    3.00254995592063e-09
186                       2                      14                5.656854    1.99440804108536e-05    2.74679788721311e-06    6.88351437419185e-06
187                       2                      14                2.828427    4.82556192418822e-07    7.07038125046536e-08     3.2352495429591e-07
188                       2                      14                       0    1.66839770330431e-07    2.57637395072659e-08     1.6364732554208e-07
189                       4                      12                5.656854    2.52388279118808e-05    9.40226722339958e-06    1.12465250056035e-05
190                       4                      12                2.828427    1.38223948193138e-05    5.36549783589909e-06    1.18206615528332e-05
191                       4                      12                       0    1.08441238239209e-07    4.36221686074639e-08    1.34996631975965e-07
192                       6                      14                5.656854     0.00329331988822651    0.000649317808707703     0.00207837790978205
193                       6                      14                2.828427    3.06489697969701e-05    6.91322172290109e-06    3.64741389963071e-05
194                       6                      14                       0    4.65457411022511e-06    1.14980927870704e-06    7.88417213918089e-06
195                       8                      12                5.656854      0.0013790404137143     0.00107389900070743     0.00142577543695672
196                       8                      12                2.828427    0.000298890694265266    0.000230032979002522     0.00054921575976429
197                       8                      12                       0    1.17197061534774e-06     8.8856236368509e-07    2.90687002748036e-06
198                      10                      14                5.656854     -0.0193520698183677    -0.00573719378010274      -0.154224026320155
199                      10                      14                2.828427    0.000183939877678598    0.000109406072903199    0.000650612147876638
200                      10                      14                       0     1.7462522584567e-05    1.01218996302233e-05    7.53167279982457e-05
201                      12                      12                5.656854     0.00169004817961148     0.00542216963268172     0.00750199039618128