ITEM: TIMESTEP
0
ITEM: NUMBER OF ATOMS
422
ITEM: BOX BOUNDS ff ff ff
0.0000000000000000e+00 2.3200000000000000e+02
0.0000000000000000e+00 2.3200000000000000e+02
0.0000000000000000e+00 2.3200000000000000e+02
ITEM: ATOMS id xu yu zu fx fy fz
1        113.126061326025        115.963649947863        108.636983132186    -0.00227728223878037    -0.00338728999567439       0.172483676213101
2          118.8377757731        115.999517174664        108.667144933029     0.00636465849019715     0.00987933196932793       0.494155682490801
3        117.435687660029        116.021137778877        108.690196666112    0.000654266742971196     -0.0427318539886998      -0.691337120833718
4        114.567786444316        115.981666348303        108.653568405367    -0.00101067360835309    -0.00883337413354796      0.0593018082280644
5         116.72758849053        114.776238172924         108.68336732276     0.00176922350739402      0.0183408229689166       -0.54847049863158
6        115.244730873504        114.718196491349        108.626757882637    -0.00333007711216741      0.0185837854360057       0.714255518368456
7        115.317866714359         117.26854705472        108.702378849332     -0.0428329206857566     0.00540696478113261      -0.884384851911205
8        116.652776535802        117.178640940963        108.611040494381      0.0389420299174143      0.0140546236455398        1.44765150659403
9        114.542267509133        113.572956829551        108.681364588376     -0.0011478186278974      -0.016653471393494      -0.788969223639183
10        117.419207103439        113.510055024593        108.615507620707     0.00415451295811707     -0.0161422235150702       0.696666669805225
11        114.544335662749        118.452817763869        108.688326111976    -0.00513722462248703     -0.0129376761262721      -0.124627588265184
12        117.495483157212        118.464123860736        108.696677046557     0.00401118880982658     0.00612267442717185      -0.963484100133664
13        113.097535729035        113.532669056697        108.627078468799    -0.00885455354419225      0.0162262332196133       0.391133093943268
14        113.147025642575        118.429131596736        108.681430834461      0.0069746790469375    -0.00245462614327681      -0.075765409957869
15        118.868973449864        113.586197517268        108.674859223696      0.0107942032199825    0.000774083037777969      -0.130805072941393
16        118.833832867156         118.39802956624         108.64458109566      0.0140714280399352     0.00486566947901976       0.538781950877336
17        112.443561227007        117.211085332508        108.673619388868    -0.00409039136422772     0.00446694399917444     -0.0774134129250025
18        112.394583504928        114.736634261252        108.622208446189      0.0151924037280651      0.0138623774421926        0.32664632847544
19        119.579178781798        114.810984697377        108.689411585105     -0.0265918149431112     0.00812809054219314      -0.536519324688341
20        119.567521474052        117.224800741983        108.680187499023    0.000454425023518201    -0.00470552201926257       -0.36497392940732
21        120.921342700987        114.790642764185        108.623061678363      0.0156449668838397     -0.0274752622347013        0.67184797399913
22        120.990576648774        117.196073516099        108.694639286523     -0.0131118859941758    -0.00723040936509779       0.131541223294129
23         111.03547383968        114.829306996011        108.671702166519     -0.0083906595678242     -0.0311204668024435      -0.682221137287522
24        111.005833688065        117.135863647194         108.64440567492      0.0148347038156826    -0.00268956934553131      -0.204375117349054
25        121.627351862428        116.032622479806        108.697479401689      0.0158238387875458      0.0230759064020171       -0.50381582440503
26        110.337554776461        115.931614180654        108.607718201989     -0.0218878670587599      0.0194093238010985       0.590526860205217
27        121.634449523537         118.21117561864        108.682107477713    0.000582496733414874    0.000751885159234637      0.0908323825830317
28        121.565195698906        113.749714981901        108.608447412206    -0.00148942296631654    -0.00103680934290541      0.0082299177145873
29        110.344965351737        118.159776088306         108.64200460101     0.00145290884881666    0.000817773969038896     -0.0511656523058292
30        110.369027964596        113.791631891065        108.661660974335     0.00245579104472409    -0.00162155750226875     0.00458093408401977
31        112.627440083753        112.643028061604        108.684427261511    0.000387337230852582     -0.0108594317083944      -0.165285259507418
32        112.560684684291        119.318064504901        108.624435183692    -0.00464226929500233     0.00299350339378545       0.094445387180055
33        119.395547983343        112.637498185023        108.672088450392   -0.000433183337101806   -0.000206299789102803     -0.0116887373757284
34        119.378877196122        119.362619249369         108.66218098898    -0.00100374316617501     0.00210267718836409     -0.0841559761434351
35        114.947257634623        112.553931625635        108.641825061756      0.0064341045384259     -0.0057293389946071       0.213560716667734
36        114.908592310029        119.354889347488        108.610021201347     0.00614257987444569      0.0124733811454009       0.172267079105007
37        117.007868749061        112.560901734779         108.64673082504    -0.00873734288379477    -0.00305081881780949      -0.207848588886312
38        116.974555551824        119.367211584877        108.620279094293     -0.0121726162259831      0.0165299492111544       0.278398116766158
39                     100                     100              105.656854                       0                       0                       0
40                     100                     100              102.828427                       0                       0                       0
41                     100                     100                     100                       0                       0                       0
42                     102                     102              105.656854                       0                       0                       0
43                     102                     102              102.828427                       0                       0                       0
44                     102                     102                     100                       0                       0                       0
45                     104                     100              105.656854                       0                       0                       0
46                     104                     100              102.828427                       0                       0                       0
47                     104                     100                     100                       0                       0                       0
48                     106                     102              105.656854                       0                       0                       0
49                     106                     102              102.828427                       0                       0                       0
50                     106                     102                     100                       0                       0                       0
51                     108                     100              105.656854                       0                       0                       0
52                     108                     100              102.828427                       0                       0                       0
53                     108                     100                     100                       0                       0                       0
54                     110                     102              105.656854                       0                       0                       0
55                     110                     102              102.828427                       0                       0                       0
56                     110                     102                     100                       0                       0                       0
57                     112                     100              105.656854                       0                       0                       0
58                     112                     100              102.828427                       0                       0                       0
59                     112                     100                     100                       0                       0                       0
60                     114                     102              105.656854                       0                       0                       0
61                     114                     102              102.828427                       0                       0                       0
62                     114                     102                     100                       0                       0                       0
63                     116                     100              105.656854                       0                       0                       0
64                     116                     100              102.828427                       0                       0                       0
65                     116                     100                     100                       0                       0                       0
66                     118                     102              105.656854                       0                       0                       0
67                     118                     102              102.828427                       0                       0                       0
68                     118                     102                     100                       0                       0                       0
69                     120                     100              105.656854                       0                       0                       0
70                     120                     100              102.828427                       0                       0                       0
71                     120                     100                     100                       0                       0                       0
72                     122                     102              105.656854                       0                       0                       0
73                     122                     102              102.828427                       0                       0                       0
74                     122                     102                     100                       0                       0                       0
75                     124                     100              105.656854                       0                       0                       0
76                     124                     100              102.828427                       0                       0                       0
77                     124                     100                     100                       0                       0                       0
78                     126                     102              105.656854                       0                       0                       0
79                     126                     102              102.828427                       0                       0                       0
80                     126                     102                     100                       0                       0                       0
81                     128                     100              105.656854                       0                       0                       0
82                     128                     100              102.828427                       0                       0                       0
83                     128                     100                     100                       0                       0                       0
84                     130                     102              105.656854                       0                       0                       0
85                     130                     102              102.828427                       0                       0                       0
86                     130                     102                     100                       0                       0                       0
87                     100                     104              105.656854                       0                       0                       0
88                     100                     104              102.828427                       0                       0                       0
89                     100                     104                     100                       0                       0                       0
90                     102                     106              105.656854                       0                       0                       0
91                     102                     106              102.828427                       0                       0                       0
92                     102                     106                     100                       0                       0                       0
93                     104                     104              105.656854                       0                       0                       0
94                     104                     104              102.828427                       0                       0                       0
95                     104                     104                     100                       0                       0                       0
96                     106                     106              105.656854                       0                       0                       0
97                     106                     106              102.828427                       0                       0                       0
98                     106                     106                     100                       0                       0                       0
99                     108                     104              105.656854                       0                       0                       0
100                     108                     104              102.828427                       0                       0                       0
101                     108                     104                     100                       0                       0                       0
102                     110                     106              105.656854                       0                       0                       0
103                     110                     106              102.828427                       0                       0                       0
104                     110                     106                     100                       0                       0                       0
105                     112                     104              105.656854                       0                       0                       0
106                     112                     104              102.828427                       0                       0                       0
107                     112                     104                     100                       0                       0                       0
108                     114                     106              105.656854                       0                       0                       0
109                     114                     106              102.828427                       0                       0                       0
110                     114                     106                     100                       0                       0                       0
111                     116                     104              105.656854                       0                       0                       0
112                     116                     104              102.828427                       0                       0                       0
113                     116                     104                     100                       0                       0                       0
114                     118                     106              105.656854                       0                       0                       0
115                     118                     106              102.828427                       0                       0                       0
116                     118                     106                     100                       0                       0                       0
117                     120                     104              105.656854                       0                       0                       0
118                     120                     104              102.828427                       0                       0                       0
119                     120                     104                     100                       0                       0                       0
120                     122                     106              105.656854                       0                       0                       0
121                     122                     106              102.828427                       0                       0                       0
122                     122                     106                     100                       0                       0                       0
123                     124                     104              105.656854                       0                       0                       0
124                     124                     104              102.828427                       0                       0                       0
125                     124                     104                     100                       0                       0                       0
126                     126                     106              105.656854                       0                       0                       0
127                     126                     106              102.828427                       0                       0                       0
128                     126                     106                     100                       0                       0                       0
129                     128                     104              105.656854                       0                       0                       0
130                     128                     104              102.828427                       0                       0                       0
131                     128                     104                     100                       0                       0                       0
132                     130                     106              105.656854                       0                       0                       0
133                     130                     106              102.828427                       0                       0                       0
134                     130                     106                     100                       0                       0                       0
135                     100                     108              105.656854                       0                       0                       0
136                     100                     108              102.828427                       0                       0                       0
137                     100                     108                     100                       0                       0                       0
138                     102                     110              105.656854                       0                       0                       0
139                     102                     110              102.828427                       0                       0                       0
140                     102                     110                     100                       0                       0                       0
141                     104                     108              105.656854                       0                       0                       0
142                     104                     108              102.828427                       0                       0                       0
143                     104                     108                     100                       0                       0                       0
144                     106                     110              105.656854                       0                       0                       0
145                     106                     110              102.828427                       0                       0                       0
146                     106                     110                     100                       0                       0                       0
147                     108                     108              105.656854                       0                       0                       0
148                     108                     108              102.828427                       0                       0                       0
149                     108                     108                     100                       0                       0                       0
150                     110                     110              105.656854                       0                       0                       0
151                     110                     110              102.828427                       0                       0                       0
152                     110                     110                     100                       0                       0                       0
153                     112                     108              105.656854                       0                       0                       0
154                     112                     108              102.828427                       0                       0                       0
155                     112                     108                     100                       0                       0                       0
156                     114                     110              105.656854                       0                       0                       0
157                     114                     110              102.828427                       0                       0                       0
158                     114                     110                     100                       0                       0                       0
159                     116                     108              105.656854                       0                       0                       0
160                     116                     108              102.828427                       0                       0                       0
161                     116                     108                     100                       0                       0                       0
162                     118                     110              105.656854                       0                       0                       0
163                     118                     110              102.828427                       0                       0                       0
164                     118                     110                     100                       0                       0                       0
165                     120                     108              105.656854                       0                       0                       0
166                     120                     108              102.828427                       0                       0                       0
167                     120                     108                     100                       0                       0                       0
168                     122                     110              105.656854                       0                       0                       0
169                     122                     110              102.828427                       0                       0                       0
170                     122                     110                     100                       0                       0                       0
171                     124                     108              105.656854                       0                       0                       0
172                     124                     108              102.828427                       0                       0                       0
173                     124                     108                     100                       0                       0                       0
174                     126                     110              105.656854                       0                       0                       0
175                     126                     110              102.828427                       0                       0                       0
176                     126                     110                     100                       0                       0                       0
177                     128                     108              105.656854                       0                       0                       0
178                     128                     108              102.828427                       0                       0                       0
179                     128                     108                     100                       0                       0                       0
180                     130                     110              105.656854                       0                       0                       0
181                     130                     110              102.828427                       0                       0                       0
182                     130                     110                     100                       0                       0                       0
183                     100                     112              105.656854                       0                       0                       0
184                     100                     112              102.828427                       0                       0                       0
185                     100                     112                     100                       0                       0                       0
186                     102                     114              105.656854                       0                       0                       0
187                     102                     114              102.828427                       0                       0                       0
188                     102                     114                     100                       0                       0                       0
189                     104                     112              105.656854                       0                       0                       0
190                     104                     112              102.828427                       0                       0                       0
191                     104                     112                     100                       0                       0                       0
192                     106                     114              105.656854                       0                       0                       0
193                     106                     114              102.828427                       0                       0                       0
194                     106                     114                     100                       0                       0                       0
195                     108                     112              105.656854                       0                       0                       0
196                     108                     112              102.828427                       0                       0                       0
197                     108                     112                     100                       0                       0                       0
198                     110                     114              105.656854                       0                       0                       0
199                     110                     114              102.828427                       0                       0                       0
200                     110                     114                     100                       0                       0                       0
201                     112                     112              105.656854                       0                       0                       0