ITEM: TIMESTEP
0
ITEM: NUMBER OF ATOMS
422
ITEM: BOX BOUNDS pp pp pp
0.0000000000000000e+00 3.2000000000000000e+01
0.0000000000000000e+00 3.2000000000000000e+01
0.0000000000000000e+00 3.2000000000000000e+01
ITEM: ATOMS id xu yu zu fx fy fz
1        13.1459321938386        15.9835208156773                 8.25685     -0.0192728015074871     0.00196877596546051      0.0852187514224991
2        18.8274848400711        15.9892262416344                 8.25685      0.0193722553808151     0.00132790482440359        0.08655656084056
3         17.402344993917         15.987795112765                 8.25685     -0.0183214897890961      0.0018845079215814      0.0985908087778576
4         14.571072038949        15.9849519429358                 8.25685      0.0179579723613131     0.00237301673090558      0.0999562197488236
5        16.7010751677692        14.7497248501637                 8.25685     -0.0885294928791628      0.0525675223905583       0.191580278793751
6        15.2748269908674        14.7482926087119                 8.25685      0.0911129749630598      0.0547687028938763        0.19874665518249
7        15.2723418650276        17.2230222053877                 8.25685      0.0886596895718243     -0.0553873095387298       0.194486662067432
8        16.6985900414216        17.2244544465825                 8.25685     -0.0859187755985324     -0.0526666632573323        0.18662966357636
9        14.5177569207574        13.5484462411751                 8.25685       0.122529197677635      -0.106834029370219       0.596836762735218
10        17.4605534827313        13.5514014038861                 8.25685      -0.125883686758201      -0.104646214266726       0.588557983256418
11        14.5128635507729         18.421345651893                 8.25685       0.124053804426466       0.101880873656466       0.609913083143017
12        17.4556601106552        18.4243008141789                 8.25685      -0.128441885119332        0.10007075106638        0.59503869121176
13        13.1273112602358        13.5624445878976                 8.25685      -0.148050263258168     -0.0742044754998026       0.430553360864153
14        13.1224488081137        18.4045547622743                 8.25685      -0.150852843650363      0.0695196932801739       0.436112980240008
15         18.850968226168        13.5681922935721                 8.25685       0.148670939626218     -0.0753981043831052        0.44293952800908
16        18.8461057714963        18.4103024705805                 8.25685       0.150533268496442      0.0729517800307139       0.450821886337597
17         12.426795838139        17.1943199436399                 8.25685     -0.0531203884568086     -0.0321854517106816       0.122964605879652
18        12.4292290587396        14.7712798150634                 8.25685     -0.0554488719016877      0.0322269359626228       0.126646410520495
19        19.5466211966922        14.7784271122721                 8.25685      0.0579856781199787      0.0337230078140425       0.130225921493409
20        19.5441879750283        17.2014672429596                 8.25685      0.0570212918720134     -0.0339437491388352       0.128641784311682
21        20.9551350226241        14.8244350858224                 8.25685       -0.10080600960388      0.0797654480489879       0.254438660518205
22        20.9527913622507        17.1582882295758                 8.25685     -0.0987146418514079     -0.0795676777663989       0.249230764221734
23        11.0206256731611        14.8144588294926                 8.25685       0.103124781935583      0.0824741081617145       0.265104226280607
24        11.0182820131454        17.1483119722736                 8.25685      0.0989260336307312     -0.0829035254356732       0.255889805432523
25        21.5867264607395        15.9919970781177                 8.25685    -0.00584890629025629    0.000590579651003566      0.0339068776279645
26        10.3866905744716        15.9807499786644                 8.25685     0.00557686029098287     0.00144092443214196      0.0344019511254569
27         21.609196045824        18.1859221409264                 8.25685     -0.0484179912646901      0.0230138753764517       0.303315757935078
28        21.6136022867001        13.7981215696947                 8.25685     -0.0477767800339253     -0.0249408144934212       0.302701564503504
29        10.3598147507275        18.1746254872963                 8.25685      0.0454495107248903      0.0220409719209244       0.309471036605116
30        10.3642209902605        13.7868249167297                 8.25685      0.0454151189788521     -0.0265634053473494       0.305373471751165
31        12.5998668222426        12.6154548000933                 8.25685    -0.00305677084044705     -0.0030160884646866    -0.00220066476148186
32        12.5931035005993        19.3504833212092                 8.25685    -0.00328995991990347     0.00313382224765025    -0.00191156986925395
33        19.3803135329519        12.6222637346313                 8.25685     0.00321601777463948    -0.00320879741260726    -0.00191190905699393
34        19.3735502071424         19.357292260389                 8.25685      0.0034209924534563      0.0033730237199133    -0.00160072331162751
35        14.9622865728669        12.5689605638796                 8.25685     0.00442340092736674    -0.00675006716559544     0.00295583829884529
36         14.955425108682        19.4017221461408                 8.25685     0.00474733611926154     0.00715284482137535     0.00377695245767568
37        17.0179919240215        12.5710249097393                 8.25685    -0.00439786998635958    -0.00657052768759189     0.00269483377678246
38         17.011130457531        19.4037864905846                 8.25685    -0.00464363610352736     0.00677207752674611     0.00316952655717986
39                       0                       0                5.656854                       0                       0                       0
40                       0                       0                2.828427                       0                       0                       0
41                       0                       0                       0                       0                       0                       0
42                       2                       2                5.656854    6.25329455648118e-10    8.81211629580429e-10     1.9438200942568e-10
43                       2                       2                2.828427                       0                       0                       0
44                       2                       2                       0                       0                       0                       0
45                       4                       0                5.656854                       0                       0                       0
46                       4                       0                2.828427                       0                       0                       0
47                       4                       0                       0                       0                       0                       0
48                       6                       2                5.656854     2.0306518161357e-08    4.10841470349664e-08    9.18850609359422e-09
49                       6                       2                2.828427    8.41753800643619e-10     1.7263918487507e-09    8.11779198966253e-10
50                       6                       2                       0    1.67719773466106e-10    2.69766303209486e-10    2.09828023631702e-10
51                       8                       0                5.656854    7.58927103368766e-10    5.35142159397297e-11     4.6201649379787e-10
52                       8                       0                2.828427    4.98527464433961e-10    2.77440882027848e-11    5.88748763049033e-10
53                       8                       0                       0                       0                       0                       0
54                      10                       2                5.656854    8.97662983777372e-08     3.4704535371672e-07    7.95151154914211e-08
55                      10                       2                2.828427    3.67097734739959e-09    1.42611360010283e-08    6.81942261990037e-09
56                      10                       2                       0    1.81974839875773e-09    7.09845941480043e-09    5.23234814301012e-09
57                      12                       0                5.656854    1.54312258683434e-09    2.42232332580601e-10    2.17469759279552e-09
58                      12                       0                2.828427    2.00206800123796e-09    3.44339678291557e-10    6.73762875455326e-09
59                      12                       0                       0                       0                       0                       0
60                      14                       2                5.656854    5.56520489333596e-08     8.5923825405851e-07    2.00103050745753e-07
61                      14                       2                2.828427    2.24735802764692e-09    3.40665544988978e-08    1.65042718251167e-08
62                      14                       2                       0    9.44585939639187e-10    1.66130616359837e-08    1.23899446952032e-08
63                      16                       0                5.656854   -8.34524326021843e-12    7.35097263576782e-10    3.33625603504094e-09
64                      16                       0                2.828427   -1.30907739937605e-11    4.71997006253398e-10    1.06400136860761e-08
65                      16                       0                       0                       0                       0                       0
66                      18                       2                5.656854   -5.70092587953216e-08    8.54322096954368e-07    1.98917936197616e-07
67                      18                       2                2.828427   -2.30165071540452e-09    3.38878057075706e-08     1.6414093407672e-08
68                      18                       2                       0   -9.72145764420873e-10    1.65359286197154e-08    1.23294661456653e-08
69                      20                       0                5.656854   -1.54829047873758e-09    1.85432415317704e-10    2.16221904987237e-09
70                      20                       0                2.828427   -2.01631198441823e-09    2.53614560677296e-10    6.70515333899976e-09
71                      20                       0                       0                       0                       0                       0
72                      22                       2                5.656854   -8.89177734788715e-08    3.41273750949703e-07    7.81523368782546e-08
73                      22                       2                2.828427    -3.6407076401597e-09    1.40415959510053e-08    6.71100071404575e-09
74                      22                       2                       0   -1.80747453210443e-09    7.00106258668434e-09    5.15777364513911e-09
75                      24                       0                5.656854   -7.53016678214808e-10    3.46362983530886e-11    4.56162273220083e-10
76                      24                       0                2.828427   -4.94740936866706e-10    2.00714099693516e-11    5.80933216206215e-10
77                      24                       0                       0                       0                       0                       0
78                      26                       2                5.656854   -1.98562414469673e-08    4.00305983680257e-08    8.94699823600162e-09
79                      26                       2                2.828427    -8.2438988469475e-10    1.68483027746565e-09    7.91696183366605e-10
80                      26                       2                       0   -1.64685961389356e-10    2.64262926042949e-10     2.0541566236808e-10
81                      28                       0                5.656854                       0                       0                       0
82                      28                       0                2.828427                       0                       0                       0
83                      28                       0                       0                       0                       0                       0
84                      30                       2                5.656854   -6.06008691761575e-10    8.52542946580749e-10    1.87878064982129e-10
85                      30                       2                2.828427                       0                       0                       0
86                      30                       2                       0                       0                       0                       0
87                       0                       4                5.656854    6.33518233455335e-12    3.44421463136386e-10    9.14481891678521e-11
88                       0                       4                2.828427                       0                       0                       0
89                       0                       4                       0                       0                       0                       0
90                       2                       6                5.656854    1.15541860503096e-07    1.06220898731261e-07    3.42226270705434e-08
91                       2                       6                2.828427    4.86548084597989e-09    4.41274828191494e-09    2.97418619446394e-09
92                       2                       6                       0    1.84084260078062e-09    1.63056611515265e-09    1.76076058052269e-09
93                       4                       4                5.656854    1.28664889031674e-08    1.75861524483779e-08    4.64523472361139e-09
94                       4                       4                2.828427    1.78650433154274e-08    2.45244778922437e-08    1.34862928242197e-08
95                       4                       4                       0    2.12835877347129e-10    2.95667650545059e-10    2.56227220660309e-10
96                       6                       6                5.656854       3.94633121736e-06    5.85510320218941e-06     1.9367536902324e-06
97                       6                       6                2.828427    1.25301683124253e-07     1.8332984190707e-07    1.25788034033097e-07
98                       6                       6                       0    5.40187627671882e-08     7.8177935932837e-08    8.11595207130171e-08
99                       8                       4                5.656854    1.51730859266697e-07     3.5690910454178e-07    9.69158980437627e-08
100                       8                       4                2.828427    1.77207623116853e-07    4.13247560086883e-07    2.32879596973809e-07
101                       8                       4                       0    2.68118277560884e-09    6.26091490327154e-09    5.36643806235108e-09
102                      10                       6                5.656854    2.67118396222819e-05     7.9763211255213e-05    2.78347549645084e-05
103                      10                       6                2.828427    6.44186509866793e-07    1.89369257525784e-06    1.35889643117322e-06
104                      10                       6                       0      2.142517537264e-07    6.15075818198455e-07    6.59853275515225e-07
105                      12                       4                5.656854     3.1025336418889e-07     1.8699801103886e-06    5.24703138126535e-07
106                      12                       4                2.828427     3.2131689242544e-07    1.88184650017143e-06    1.09237148867117e-06
107                      12                       4                       0    4.43540917812487e-09    2.52707079808328e-08    2.21100194167747e-08
108                      14                       6                5.656854    1.49222555192828e-05    0.000229486094374148    8.28346145069567e-05
109                      14                       6                2.828427    3.56300122272769e-07    4.83811562901261e-06    3.58105304181921e-06
110                      14                       6                       0    1.17311035339589e-07    1.40412022568076e-06    1.54678671107363e-06
111                      16                       4                5.656854   -2.92521863594454e-09    2.80983373743554e-06    7.96424964930525e-07
112                      16                       4                2.828427   -2.89479164865819e-09      2.769703165499e-06    1.62371115219235e-06
113                      16                       4                       0   -3.83484572226829e-11    3.64919436552768e-08    3.21906810552653e-08
114                      18                       6                5.656854   -1.53604514303691e-05    0.000228087345127179    8.22930614987075e-05
115                      18                       6                2.828427   -3.65632746204819e-07    4.81288332725245e-06    3.56093851472446e-06
116                      18                       6                       0   -1.20063129441238e-07    1.39798091054083e-06    1.53946977266656e-06
117                      20                       4                5.656854    -3.1047694230511e-07    1.84742684949655e-06    5.18095413345791e-07
118                      20                       4                2.828427   -3.21837233151731e-07    1.86156351475279e-06    1.08004908315472e-06
119                      20                       4                       0   -4.44752804268691e-09     2.5035122172451e-08     2.1893404517638e-08
120                      22                       6                5.656854   -2.63878534735927e-05    7.82297678804027e-05    2.72729266756729e-05
121                      22                       6                2.828427   -6.38015506205089e-07    1.86230010452783e-06    1.33516948220651e-06
122                      22                       6                       0   -2.12733092592333e-07    6.06510869880337e-07    6.50132388791977e-07
123                      24                       4                5.656854      -1.48954979326e-07    3.48671533827513e-07    9.46053963640178e-08
124                      24                       4                2.828427   -1.74324386288835e-07    4.04574025329776e-07    2.27821356608066e-07
125                      24                       4                       0   -2.64434126018025e-09      6.145566897065e-09     5.2636578417717e-09
126                      26                       6                5.656854   -3.84261523172248e-06    5.68195656965258e-06    1.87738918884687e-06
127                      26                       6                2.828427   -1.22393667640777e-07    1.78486347062328e-07    1.22335568718721e-07
128                      26                       6                       0   -5.29544259789674e-08    7.63926133985161e-08    7.92259677442882e-08
129                      28                       4                5.656854    -1.2500516618546e-08    1.70432347243967e-08    4.49785883081768e-09
130                      28                       4                2.828427   -1.73940518496421e-08    2.38193093841766e-08    1.30870334037968e-08
131                      28                       4                       0   -2.07870555452728e-10    2.88100750406228e-10    2.49417034856726e-10
132                      30                       6                5.656854   -1.11271557814313e-07    1.02011746166938e-07    3.28883411757564e-08
133                      30                       6                2.828427   -4.71551185035609e-09    4.27020351051306e-09    2.87481811065499e-09
134                      30                       6                       0   -1.79110391592704e-09    1.58446098489419e-09    1.70867516000555e-09
135                       0                       8                5.656854    4.60709955857513e-10    1.46941588864214e-08    6.06680241261359e-09
136                       0                       8                2.828427      5.503097109065e-10    1.88571103366838e-08     1.6466871797007e-08
137                       0                       8                       0    5.73667923419978e-12    2.14179678043971e-10    3.05306046305986e-10
138                       2                      10                5.656854     3.8855474900319e-06    1.96770682718041e-06    1.16627493921892e-06
139                       2                      10                2.828427    1.26337076070584e-07    6.49085588485934e-08    7.88248410203598e-08
140                       2                      10                       0    5.59172375746911e-08    2.87902405221417e-08    5.23656276521331e-08
141                       4                       8                5.656854    1.24269636675129e-06    1.10524002888149e-06    4.70749384794638e-07
142                       4                       8                2.828427    1.19315711008406e-06    1.05707340169803e-06    9.29652220563562e-07
143                       4                       8                       0    1.53542379992823e-08    1.35575819669937e-08    1.78870979075965e-08
144                       6                      10                5.656854    0.000364970099774026    0.000312172546737124    0.000196374530151243
145                       6                      10                2.828427    6.06728569021689e-06    5.15093928822079e-06    6.57064919404411e-06
146                       6                      10                       0    1.43900411885657e-06     1.2105628605184e-06    2.26992321050103e-06
147                       8                       8                5.656854    2.97788844628605e-05    5.03849698029613e-05    2.25373202155559e-05
148                       8                       8                2.828427    1.80961804948185e-05    2.96035734188563e-05    2.71944268773434e-05
149                       8                       8                       0    1.48932029943895e-07    2.35485704759484e-07    3.22103440899822e-07
150                      10                      10                5.656854     0.00389961350267518     0.00778843275186326     0.00537675189835701
151                      10                      10                2.828427    3.94486835934708e-05    7.63897798382961e-05     0.00010527343119951
152                      10                      10                       0    6.00836698187969e-06     1.0945922927213e-05    2.17991865259268e-05
153                      12                       8                5.656854    8.28150384952524e-05    0.000386708974614815    0.000188995337434071
154                      12                       8                2.828427    3.65811082751544e-05    0.000162691361570069    0.000159942211822044
155                      12                       8                       0    2.35826463855117e-07    9.85900612471529e-07    1.41936902388665e-06
156                      14                      10                5.656854     0.00130699531788206       0.019055774133859      0.0143538658927631
157                      14                      10                2.828427    1.52584543845791e-05    0.000186913082590162    0.000280893383342305
158                      14                      10                       0    2.57684919042233e-06    2.32950319774157e-05    4.93600463286271e-05
159                      16                       8                5.656854   -6.21639941706077e-07    0.000568820225651781    0.000284681507236415
160                      16                       8                2.828427   -2.67198531799816e-07    0.000231792267453199    0.000233128989832562
161                      16                       8                       0   -1.66575507356981e-09    1.36696228056533e-06    2.00827598438802e-06
162                      18                      10                5.656854    -0.00136606799634236       0.019012994743913      0.0143114457096575
163                      18                      10                2.828427   -1.57816001829193e-05    0.000186266620339106    0.000279663940539309
164                      18                      10                       0   -2.64099501491755e-06    2.32277195630618e-05     4.9180527693795e-05
165                      20                       8                5.656854   -8.28352148972142e-05    0.000381610672995575    0.000186284622275213
166                      20                       8                2.828427   -3.66592202450802e-05    0.000160992074656782    0.000158108679435414
167                      20                       8                       0   -2.36623215970793e-07    9.77670994976619e-07    1.40626906076415e-06
168                      22                      10                5.656854    -0.00385512763151008     0.00765196985129718     0.00527099777783209
169                      22                      10                2.828427    -3.9111961810342e-05    7.52287173471807e-05    0.000103469057907694
170                      22                      10                       0    -5.9751427494252e-06    1.08156446811686e-05    2.15051785416359e-05
171                      24                       8                5.656854    -2.9121401013501e-05    4.90330081719949e-05    2.18986080241579e-05
172                      24                       8                2.828427   -1.77739714038581e-05    2.89431459432429e-05    2.65505987372452e-05
173                      24                       8                       0   -1.46850380659339e-07    2.31179314122432e-07    3.15822476877755e-07
174                      26                      10                5.656854    -0.00035376901553447    0.000301824511372601    0.000189429807416804
175                      26                      10                2.828427   -5.91693602305642e-06    5.01034802267374e-06    6.37860798319919e-06
176                      26                      10                       0    -1.4107565939479e-06    1.18370446863571e-06    2.21581035251032e-06
177                      28                       8                5.656854   -1.20204109591436e-06    1.06699168795969e-06    4.53763611414382e-07
178                      28                       8                2.828427   -1.15875175736946e-06    1.02455565583911e-06    8.99778472690582e-07
179                      28                       8                       0   -1.49769516533739e-08     1.3197748533768e-08    1.73897983558083e-08
180                      30                      10                5.656854   -3.74458057313419e-06    1.89575305819835e-06    1.12151004747601e-06
181                      30                      10                2.828427   -1.22201394332387e-07     6.2768745348662e-08    7.60962684667907e-08
182                      30                      10                       0   -5.43522941539877e-08    2.79545577009785e-08    5.07627024203798e-08
183                       0                      12                5.656854    5.07734418208386e-09    7.11371486563414e-08    6.52242078282875e-08
184                       0                      12                2.828427    5.83434457842864e-09    9.06503757853807e-08    1.69677487431899e-07
185                       0                      12                       0    8.09632706206253e-11    1.48918101360814e-09    4.06987459550859e-09
186                       2                      14                5.656854    2.31355995203346e-05    3.29083383671409e-06    6.94678891800173e-06
187                       2                      14                2.828427    6.47713323724347e-07    9.75620496612652e-08    4.04393247585464e-07
188                       2                      14                       0     2.4597632297331e-07    3.90325076985016e-08    2.30950853299851e-07
189                       4                      12                5.656854    2.98515280008401e-05    1.12884018609996e-05    1.15732659367026e-05
190                       4                      12                2.828427    1.91936799745914e-05    7.54363678642227e-06    1.52816240729338e-05
191                       4                      12                       0    1.65572448716017e-07    6.74125058456581e-08    1.96183203003381e-07
192                       6                      14                5.656854     0.00428454136947245    0.000875261344778144     0.00234699981564116
193                       6                      14                2.828427    4.74692055707988e-05    1.09392043966216e-05    5.26277993377342e-05
194                       6                      14                       0    7.69541249623445e-06    1.93988636921656e-06    1.24381962549335e-05
195                       8                      12                5.656854     0.00181456279835892     0.00142608645424039     0.00161417810810542
196                       8                      12                2.828427    0.000477525017351842    0.000371218033991146    0.000818529129485262
197                       8                      12                       0    1.97068365018466e-06    1.50971245971107e-06    4.67396146377711e-06
198                      10                      14                5.656854       -0.14582052314977     -0.0677374651590023      -0.601461503521016
199                      10                      14                2.828427    0.000320244076731781    0.000194990439939393      0.0010792174797983
200                      10                      14                       0    3.08096921324295e-05    1.82873010464776e-05    0.000129082589547224
201                      12                      12                5.656854    0.000344412813505132     0.00417691793591197     0.00203902553421415