ITEM: TIMESTEP
0
ITEM: NUMBER OF ATOMS
422
ITEM: BOX BOUNDS pp pp pp
0.0000000000000000e+00 3.2000000000000000e+01
0.0000000000000000e+00 3.2000000000000000e+01
0.0000000000000000e+00 3.2000000000000000e+01
ITEM: ATOMS id xu yu zu fx fy fz
1        12.7459321938386        15.9835208156773                 8.65685    -0.00459922560735423    0.000314686613800394    0.000868890544836893
2        18.4274848400711        15.9892262416344                 8.65685     0.00441069051190349    0.000507112468913662       0.015556339070776
3         17.002344993917         15.987795112765                 8.65685    -0.00569363588346727    0.000341684844595555     0.00511878437352484
4         14.171072038949        15.9849519429358                 8.65685     0.00196891331959631    0.000779440534619813      0.0183714276541382
5        16.3010751677692        14.7497248501637                 8.65685     -0.0109950777403648     0.00747971802598238      0.0154953488503882
6        14.8748269908674        14.7482926087119                 8.65685      0.0293726906661692      0.0251521156848613       0.080062432135937
7        14.8723418650276        17.2230222053877                 8.65685      0.0285721385293766     -0.0254725034694473      0.0777612368456362
8        16.2985900414216        17.2244544465825                 8.65685       -0.01063646606329    -0.00750149049765074      0.0147594051140629
9        14.1177569207574        13.5484462411751                 8.65685     0.00794008177264115     -0.0304788525059017       0.176549802579093
10        17.0605534827313        13.5514014038861                 8.65685     -0.0366636583019872     -0.0175533114235611      0.0955700207251369
11        14.1128635507729         18.421345651893                 8.65685     0.00774357631235929      0.0289355807185212        0.17996248447956
12        17.0556601106552        18.4243008141789                 8.65685     -0.0371274587233558      0.0167277169134461      0.0964080318063765
13        12.7273112602357        13.5624445878976                 8.65685     -0.0305504648927576     -0.0109377541873155      0.0559658167290685
14        12.7224488081137        18.4045547622743                 8.65685     -0.0309343444143066      0.0102171684086567      0.0566608811945917
15         18.450968226168        13.5681922935721                 8.65685      0.0273050338518566      -0.026142769529548       0.156561651065417
16        18.4461057714963        18.4103024705805                 8.65685      0.0273959495590811      0.0251934365480863       0.159044592956447
17         12.026795838139        17.1943199436399                 8.65685   -0.000938841957631937    -0.00594847649265389     0.00881812747396777
18        12.0292290587396        14.7712798150634                 8.65685    -0.00106029057384885       0.005926731514216     0.00949713071905691
19        19.1466211966922        14.7784271122721                 8.65685      0.0261317939267221      0.0180066032084845      0.0510647016368412
20        19.1441879750283        17.2014672429596                 8.65685        0.02565444782602     -0.0181629572810421        0.05002363950184
21        20.5551350226241        14.8244350858224                 8.65685     -0.0180488833759606      0.0113843686640802      0.0258740691132147
22        20.5527913622507        17.1582882295758                 8.65685     -0.0176553518768585     -0.0113583530864328      0.0250658990469212
23        10.6206256731611        14.8144588294926                 8.65685      0.0248312199319791      0.0325716945779113      0.0980115080189592
24        10.6182820131454        17.1483119722736                 8.65685      0.0238348902139534     -0.0328036540784268      0.0939005154889849
25        21.1867264607395        15.9919970781177                 8.65685    -0.00204893808640388    0.000110617329786918     -0.0049883497993291
26         9.9866905744716        15.9807499786644                 8.65685   -5.63876292947695e-05    0.000411456399193103   -0.000842915137757985
27         21.209196045824        18.1859221409264                 8.65685     -0.0166629103308724     0.00388921028400283      0.0461447223579807
28        21.2136022867001        13.7981215696947                 8.65685     -0.0165779585441779    -0.00422534411839927      0.0461748865527674
29        9.95981475072747        18.1746254872963                 8.65685    -0.00126682331695762     0.00550660216764514      0.0767208085759014
30        9.96422099026049        13.7868249167297                 8.65685    -0.00111724106955025    -0.00665967237619049      0.0758523691732065
31        12.1998668222426        12.6154548000933                 8.65685    -0.00017692826215649   -4.93011787871745e-05     -0.0100315005566718
32        12.1931035005993        19.3504833212092                 8.65685   -0.000192874602540974    5.62355133170367e-05    -0.00999871052542219
33        18.9803135329519        12.6222637346313                 8.65685    0.000951341934863288    -0.00151820233150634      -0.007484058350391
34        18.9735502071424         19.357292260389                 8.65685     0.00100801214900396     0.00158134590742895    -0.00731104298810678
35        14.5622865728669        12.5689605638796                 8.65685    0.000801967100660232    -0.00235659533567964    -0.00601210903289801
36         14.555425108682        19.4017221461408                 8.65685    0.000857519124791095     0.00248103570024594    -0.00568735001229152
37        16.6179919240215        12.5710249097393                 8.65685   -0.000507637071416137   -0.000544980964592087    -0.00929044147471344
38         16.611130457531        19.4037864905846                 8.65685   -0.000546307515645328    0.000558527467970721    -0.00923513334047519
39                       0                       0                5.656854                       0                       0                       0
40                       0                       0                2.828427                       0                       0                       0
41                       0                       0                       0                       0                       0                       0
42                       2                       2                5.656854    7.49643415612052e-10    1.10945134503475e-09    2.82378810308343e-10
43                       2                       2                2.828427                       0                       0                       0
44                       2                       2                       0                       0                       0                       0
45                       4                       0                5.656854                       0                       0                       0
46                       4                       0                2.828427                       0                       0                       0
47                       4                       0                       0                       0                       0                       0
48                       6                       2                5.656854    2.18922459986698e-08    4.67401597376005e-08    1.20900975849403e-08
49                       6                       2                2.828427    7.87151278927558e-10     1.7087916059318e-09    8.64612268600882e-10
50                       6                       2                       0                       0                       0                       0
51                       8                       0                5.656854    7.44702405685714e-10    5.65569417653551e-11    5.64916069794374e-10
52                       8                       0                2.828427    4.31536673854657e-10    2.64262233379848e-11    5.99343072759044e-10
53                       8                       0                       0                       0                       0                       0
54                      10                       2                5.656854    8.18078958180499e-08    3.46017848101322e-07    9.16301284031903e-08
55                      10                       2                2.828427     2.9030990018978e-09    1.24020371571984e-08    6.37595501108348e-09
56                      10                       2                       0    9.44752706809261e-10    4.62193666756572e-09    3.59582777255004e-09
57                      12                       0                5.656854    1.27139469583248e-09    2.27392145656511e-10     2.3842047334301e-09
58                      12                       0                2.828427    1.52316928837095e-09    2.55563588489005e-10    5.59436210543723e-09
59                      12                       0                       0                       0                       0                       0
60                      14                       2                5.656854    3.88561225325358e-08    7.64752001411291e-07    2.05301736936582e-07
61                      14                       2                2.828427    1.34492838704598e-09    2.65826694090453e-08    1.38262351400785e-08
62                      14                       2                       0    5.75501235773304e-10    1.12380137409408e-08    8.81071425256886e-09
63                      16                       0                5.656854   -2.15226052060431e-10    2.75839215686392e-10    3.28847767705644e-09
64                      16                       0                2.828427    1.00594482257303e-10     3.1939728107071e-10      8.149767126019e-09
65                      16                       0                       0                       0                       0                       0
66                      18                       2                5.656854   -5.76706550428632e-08    7.02746319668196e-07    1.88584621636286e-07
67                      18                       2                2.828427   -2.03470919153796e-09    2.45115578109093e-08    1.27332879027669e-08
68                      18                       2                       0   -8.70741429317287e-10    1.09817287576944e-08    8.57288508041526e-09
69                      20                       0                5.656854   -1.21857887999541e-09    1.37332631793363e-10    1.90850813977562e-09
70                      20                       0                2.828427   -1.40230169723392e-09    1.34696348718088e-10    3.87089926397467e-09
71                      20                       0                       0                       0                       0                       0
72                      22                       2                5.656854   -7.06714622392153e-08    2.50757243255096e-07    6.61151270652061e-08
73                      22                       2                2.828427   -2.47937800726021e-09    9.00772225713114e-09     4.6180221753579e-09
74                      22                       2                       0   -9.56502326840073e-10    3.64818622021074e-09    2.82641838589698e-09
75                      24                       0                5.656854   -5.88291342320092e-10    2.48440517899932e-11    3.82772291923592e-10
76                      24                       0                2.828427   -3.43587659374094e-10    1.26807796501838e-11    3.98679659653514e-10
77                      24                       0                       0                       0                       0                       0
78                      26                       2                5.656854   -1.37559778613344e-08    2.61313575846049e-08    6.74400542843698e-09
79                      26                       2                2.828427   -4.36021570463187e-10    8.37168593363382e-10    4.27243568873332e-10
80                      26                       2                       0                       0                       0                       0
81                      28                       0                5.656854                       0                       0                       0
82                      28                       0                2.828427                       0                       0                       0
83                      28                       0                       0                       0                       0                       0
84                      30                       2                5.656854                       0                       0                       0
85                      30                       2                2.828427                       0                       0                       0
86                      30                       2                       0                       0                       0                       0
87                       0                       4                5.656854    1.40936856388326e-10    3.37235856382638e-10    1.03340545381387e-10
88                       0                       4                2.828427                       0                       0                       0
89                       0                       4                       0                       0                       0                       0
90                       2                       6                5.656854    1.51767570993644e-07    1.43885598681782e-07    5.35227515059579e-08
91                       2                       6                2.828427    5.39437094919926e-09    5.09925170173351e-09     3.6942666840427e-09
92                       2                       6                       0    1.75832314358051e-09    1.62599649972535e-09    1.84380661700913e-09
93                       4                       4                5.656854    1.51636608219309e-08     2.1710641720017e-08    6.63091940225352e-09
94                       4                       4                2.828427    1.81320247388769e-08    2.60945505828505e-08    1.54342256760249e-08
95                       4                       4                       0    1.86509360845082e-10    2.72916962708032e-10    2.48498878010181e-10
96                       6                       6                5.656854    4.31079110506817e-06    6.77102285715639e-06    2.59295624404195e-06
97                       6                       6                2.828427     1.1538666718094e-07    1.78391998603487e-07    1.31735177058947e-07
98                       6                       6                       0    4.36256523479841e-08    6.67847740457881e-08    7.28361331847972e-08
99                       8                       4                5.656854    1.51034127424678e-07    3.79510038797166e-07    1.19293607956657e-07
100                       8                       4                2.828427    1.51392198872712e-07    3.77173443979616e-07    2.28734248335281e-07
101                       8                       4                       0    2.02035379915908e-09    5.06318463009192e-09    4.56064572139048e-09
102                      10                       6                5.656854     2.3378552592988e-05    7.67031698474172e-05    3.09983229868739e-05
103                      10                       6                2.828427    4.76262038491287e-07    1.53337277401537e-06    1.18374056557622e-06
104                      10                       6                       0    1.42337669410359e-07    4.46974224323249e-07    5.03375726723012e-07
105                      12                       4                5.656854    2.45260272843029e-07    1.70559754471065e-06    5.52723368530178e-07
106                      12                       4                2.828427    2.21771120581005e-07    1.48331664550355e-06     9.2469483747919e-07
107                      12                       4                       0    2.75749424433111e-09    1.79904736805425e-08    1.65093673177373e-08
108                      14                       6                5.656854    9.18763583771335e-06     0.00018814451481389    7.83062056122322e-05
109                      14                       6                2.828427    1.93671166575415e-07    3.40587322524807e-06    2.70195361378414e-06
110                      14                       6                       0    5.90918638588521e-08    9.06108612925481e-07    1.04555974247575e-06
111                      16                       4                5.656854   -3.02885652353494e-08    2.33195366862134e-06    7.61764990810987e-07
112                      16                       4                2.828427   -2.87351413002885e-08    1.99749174785386e-06    1.25499203285439e-06
113                      16                       4                       0   -3.53151639957777e-10    2.38733276231767e-08    2.20648212283068e-08
114                      18                       6                5.656854   -1.53264440722786e-05    0.000174242489482325    7.22708887535135e-05
115                      18                       6                2.828427   -3.08799132794878e-07    3.16424520156401e-06    2.50196023528186e-06
116                      18                       6                       0    -9.1508178991115e-08    8.45668086925189e-07     9.7262092602301e-07
117                      20                       4                5.656854   -2.67689468622912e-07    1.39219323278254e-06    4.49020586005052e-07
118                      20                       4                2.828427   -2.42039623388751e-07    1.23040305544561e-06    7.63617879551085e-07
119                      20                       4                       0   -3.05214223666261e-09    1.51127508795497e-08    1.38323659870137e-08
120                      22                       6                5.656854   -1.92471892830284e-05    5.22211688142571e-05    2.08502974783266e-05
121                      22                       6                2.828427    -4.1140556909378e-07    1.09728911822335e-06    8.38591262931588e-07
122                      22                       6                       0   -1.28080736729424e-07    3.34217325445207e-07    3.73530528481692e-07
123                      24                       4                5.656854   -1.06022270813086e-07    2.32847258378936e-07    7.25677977469957e-08
124                      24                       4                2.828427   -1.09931151195168e-07    2.39418446548041e-07    1.44359557697328e-07
125                      24                       4                       0   -1.53599088571774e-09    3.31596316282265e-09    2.97890274751933e-09
126                      26                       6                5.656854   -2.41923988957618e-06    3.37503680723046e-06    1.28108454163474e-06
127                      26                       6                2.828427   -6.91072729610917e-08     9.5277197652884e-08    6.97914774473157e-08
128                      26                       6                       0   -2.76329037003735e-08     3.7416623669783e-08    4.08445518782314e-08
129                      28                       4                5.656854   -7.90602286921296e-09    1.02928904324759e-08     3.1267677702686e-09
130                      28                       4                2.828427   -9.28577572867509e-09    1.22664638274024e-08    7.24146352387401e-09
131                      28                       4                       0   -8.32957739979418e-11    1.20261463349575e-10    1.06253575401413e-10
132                      30                       6                5.656854   -6.21506699189521e-08    5.60059110100784e-08    2.07682029514994e-08
133                      30                       6                2.828427   -2.34393956275742e-09    2.04541013811134e-09    1.48092886301049e-09
134                      30                       6                       0   -7.58985119675747e-10    6.73616017160454e-10    7.47794551038753e-10
135                       0                       8                5.656854    1.16160989428951e-08    1.46342064659368e-08    6.99121899481471e-09
136                       0                       8                2.828427    1.29778105878444e-08     1.6905232644282e-08    1.58136588141911e-08
137                       0                       8                       0    1.14330851364628e-10    1.63986365613385e-10    2.45180080773345e-10
138                       2                      10                5.656854    5.36181349762935e-06    2.81893007233966e-06    1.93483613256336e-06
139                       2                      10                2.828427    1.43695796631904e-07    7.63585458480493e-08    9.97038965242688e-08
140                       2                      10                       0      5.392282163138e-08    2.89702153114296e-08    5.52898171756541e-08
141                       4                       8                5.656854    1.52608322302842e-06    1.42984733511503e-06    7.04358494527927e-07
142                       4                       8                2.828427    1.21022400534147e-06    1.12708586551815e-06    1.06569188398446e-06
143                       4                       8                       0    1.34968380764447e-08     1.2508924806367e-08    1.73193010150442e-08
144                       6                      10                5.656854     0.00040162438302776    0.000369168645751038    0.000268674021887554
145                       6                      10                2.828427    5.32609828003482e-06    4.82822735569695e-06    6.61578539105829e-06
146                       6                      10                       0    1.10667427010449e-06    9.89254642118391e-07    1.94458439309186e-06
147                       8                       8                5.656854     2.8629250214854e-05    5.20351473884368e-05    2.70178422261807e-05
148                       8                       8                2.828427    1.43474267619417e-05    2.51533872223061e-05    2.48903008153666e-05
149                       8                       8                       0    1.05321245190025e-07    1.78289365259114e-07    2.56132706410268e-07
150                      10                      10                5.656854     0.00312038436396083     0.00688827392821726      0.0055471307122444
151                      10                      10                2.828427    2.55982557257285e-05    5.43521308316351e-05    8.06880232675364e-05
152                      10                      10                       0    3.61365370129372e-06    7.22875720953744e-06    1.51042189832187e-05
153                      12                       8                5.656854    5.73842992597422e-05    0.000319531036827528    0.000180249939274605
154                      12                       8                2.828427    2.18847809920499e-05    0.000113457050289709    0.000119652397652569
155                      12                       8                       0    1.32510476288625e-07     6.3550484713931e-07    9.58175802130722e-07
156                      14                      10                5.656854    0.000598024874242129      0.0153349893160536      0.0134557500564903
157                      14                      10                2.828427    6.67009489283704e-06     0.00011306095572929     0.00018084242318736
158                      14                      10                       0    1.16821294519381e-06    1.36220416234396e-05    3.00541104543129e-05
159                      16                       8                5.656854   -3.63334250003633e-06    0.000422497953826221    0.000242762191308193
160                      16                       8                2.828427   -1.97525749113341e-06    0.000147698337146271    0.000158526885147607
161                      16                       8                       0   -1.48797760314365e-08    8.15502785323697e-07    1.24895553304109e-06
162                      18                      10                5.656854    -0.00154862648140934      0.0146453122311953      0.0127573371420403
163                      18                      10                2.828427   -1.30630752363816e-05    0.000107598151716819    0.000170788445745632
164                      18                      10                       0   -1.93232569625049e-06     1.2921703033134e-05    2.83176642466131e-05
165                      20                       8                5.656854   -6.44538724602746e-05    0.000252710234330049    0.000140829387980105
166                      20                       8                2.828427   -2.47548297541929e-05    9.35779369114136e-05    9.76065477706664e-05
167                      20                       8                       0   -1.50360612978903e-07    5.39732413986745e-07    8.06444103262819e-07
168                      22                      10                5.656854     -0.0025129318755467     0.00458166358863227      0.0035735244032311
169                      22                      10                2.828427   -2.22518212833715e-05    3.85344149067635e-05     5.5891597231271e-05
170                      22                      10                       0   -3.32194848237829e-06    5.43243129784617e-06    1.11692315799823e-05
171                      24                       8                5.656854   -1.82596492749235e-05    2.84411619063816e-05    1.45280154243678e-05
172                      24                       8                2.828427   -9.97060909060209e-06     1.5041213894862e-05     1.4687751874584e-05
173                      24                       8                       0   -7.86354147215501e-08    1.15188196189294e-07    1.63801136720925e-07
174                      26                      10                5.656854   -0.000187165777934365    0.000149052651041766    0.000106959704692382
175                      26                      10                2.828427   -2.88998124453045e-06    2.29409808481571e-06    3.10490635346434e-06
176                      26                      10                       0   -6.79050490012973e-07     5.3668938657228e-07    1.04430423741009e-06
177                      28                       8                5.656854   -6.65267584755823e-07    5.61605584723482e-07     2.7430445761072e-07
178                      28                       8                2.828427   -5.85115940220648e-07    4.92548894566954e-07     4.6219571271078e-07
179                      28                       8                       0   -6.92979516422878e-09    5.88162265381624e-09     8.1118149022497e-09
180                      30                      10                5.656854   -1.88242854332835e-06    9.34880492112308e-07     6.3301768962339e-07
181                      30                      10                2.828427   -5.63891970880094e-08    2.84854284705606e-08    3.68440953308615e-08
182                      30                      10                       0   -2.46874790904924e-08    1.22333224642127e-08    2.31311153620754e-08
183                       0                      12                5.656854    1.38626259891284e-07    7.22016637365106e-08    7.66425293532906e-08
184                       0                      12                2.828427    1.37865784901902e-07    7.82391672045083e-08     1.5765611990475e-07
185                       0                      12                       0    1.88686222117962e-09    1.05509784459678e-09    3.16128657988135e-09
186                       2                      14                5.656854    3.30568670907906e-05     4.8484365205272e-06    1.19502657682919e-05
187                       2                      14                2.828427    7.43048261681453e-07    1.16085195395025e-07    5.17991882731489e-07
188                       2                      14                       0    2.39254555388224e-07    3.93743076584444e-08    2.44470793300433e-07
189                       4                      12                5.656854    3.86471762856803e-05    1.54099211688686e-05    1.83390752343813e-05
190                       4                      12                2.828427    1.94332689663227e-05    8.07031978901122e-06     1.7549879042902e-05
191                       4                      12                       0    1.42772104789624e-07    6.13092708263006e-08    1.86728620346962e-07
192                       6                      14                5.656854      0.0047814419503539     0.00106005525166644      0.0032752256543997
193                       6                      14                2.828427     4.0618537954872e-05     1.0148738850698e-05    5.19779418085437e-05
194                       6                      14                       0    5.73552823730669e-06    1.55287731337115e-06    1.03737450661582e-05
195                       8                      12                5.656854     0.00162264865955182     0.00142003125856042     0.00186045510125369
196                       8                      12                2.828427    0.000339702319278731    0.000289552415622001    0.000682944258771456
197                       8                      12                       0    1.28857357539479e-06    1.06987065774061e-06    3.46464619369759e-06
198                      10                      14                5.656854     -0.0119371681926684     -0.0190875497541342       -0.18948458925284
199                      10                      14                2.828427    0.000181238357003852    0.000126123913844239    0.000740541043495746
200                      10                      14                       0    1.71627339140298e-05    1.13934832096383e-05    8.38048165258604e-05
201                      12                      12                5.656854     0.00145424793557542     0.00540642977114358     0.00750017789718548