ITEM: TIMESTEP
0
ITEM: NUMBER OF ATOMS
422
ITEM: BOX BOUNDS ff ff ff
0.0000000000000000e+00 2.3200000000000000e+02
0.0000000000000000e+00 2.3200000000000000e+02
0.0000000000000000e+00 2.3200000000000000e+02
ITEM: ATOMS id xu yu zu fx fy fz
1        113.122735577606        115.960324199445        108.633657383768        3.34237611930818        3.08554206920468       0.440636301051831
2        118.876227158643        116.037968560206        108.705596318572       -3.54421896966995       -4.07342734443186      -0.669650238087738
3        117.423712643395        116.009162762243        108.678221649478      -0.699876197444881       -1.39926577312887      -0.198526955881772
4          114.5888339106        116.002713814587        108.674615871651      -0.192541696396865        0.63983999325541      0.0149382588847343
5        116.663201363687        114.711851046081        108.618980195918        6.15181800836662        6.10307126188897        1.33750142713705
6        115.311682277688        114.785147895533        108.693709286821       -4.26852170758202       -3.54212999318654       -0.71543511105868
7        115.309434114973        117.260114455334        108.693946249946       -1.37885279024347       -1.10919177269183      -0.196229639227979
8        116.738288825925        117.264153231086        108.696552784504       -1.97708162920251       -1.68196169794357      -0.176560998184216
9        114.530444363694        113.561133684111        108.669541442936      -0.159843722394728       0.742334786648868       0.277281513856834
10        117.477357094621        113.568205015776         108.67365761189      -0.942183942870798       -1.97233127338785      -0.195181452015567
11        114.533756504006        118.442238605126        108.677746953233        1.18111722465305       0.570839544615581       0.378482422469393
12         117.46541018406        118.434050887584        108.666604073405      -0.331360668035996       0.806041258716381       0.268664354553792
13        113.113312795253        113.548446122915        108.642855535017        2.81569483083292        2.96047101887554       0.737475695572467
14        113.171127808506        118.453233762667        108.705533000392       -4.18984257038073       -5.13203742757262      -0.888713187733747
15        118.891147382104        113.608371449508        108.697033155936       -2.46077425935951       -2.34929813997314      -0.378304675071021
16        118.814246329981        118.378443029065        108.624994558484        3.36925748176473        3.23229829822863       0.553318257391382
17        112.390480166516        117.158004272017        108.620538328377        5.44550450914259        5.59345378272935        1.21102731281572
18        112.467430696264        114.809481452588        108.695055637525       -4.73822205404091       -5.27696409514062      -0.871798280418315
19        119.558645049558        114.790450965138        108.668877852865        3.02329067621742        3.33654716094407         1.0603667715385
20        119.552421795271        117.209701063203        108.665087820243       0.244356187571026       0.529747731924478       0.159416332811818
21         120.99567367159        114.864973734788        108.697392648966       -6.33450145353903       -7.31180927312619       -1.04542241728309
22        120.951799800565         117.15729666789        108.655862438315      -0.551175000782876      -0.409096963884055      -0.286927317691679
23        111.016635768449        114.810468924781        108.652864095288      -0.683038742744919       -1.11514963218014      0.0202452481925556
24        111.035492759407        117.165522718535        108.674064746261       -4.95385491364971       -4.54147007386881       -1.03287493549417
25        121.548419993748        115.953690611127        108.618547533009        5.34794045819851        5.78611687465535       0.518783813047767
26        110.353413704876        115.947473109069        108.623577130405        2.81920743551875        4.18659796262382       0.706893426532852
27        121.613760934688        118.190487029791        108.661418888864     -0.0192535803611035      -0.806550096540438      0.0605992319921817
28        121.610315220495         113.79483450349        108.653566933795       0.941057228531258        1.78081558462576        0.42871464254852
29        110.379990950705        118.194801687273        108.677030199977       0.582531560524923       0.189816574427618       0.287499508904111
30        110.342099136726        113.764703063195        108.634732146466         1.7501292238493       0.917779484291649       0.206632145735382
31        112.606789065475        112.622377043326        108.663776243233      -0.622376432342038       -0.63542038129106     -0.0567959270290191
32        112.606289512318        119.363669332928        108.670040011718       0.315620332576396       0.657052100199051       0.185423992931913
33        119.367023669076        112.608973870755        108.643564136124       0.400214218193764        1.02379855842902       0.228452282787822
34        119.372910228912        119.356652282159         108.65621402177       -0.70105027947508       -1.07263273385403      -0.211110984253823
35        114.998890172394        112.605564163406        108.693457599527      -0.308642261042278      -0.408697842289068     -0.0706392209950508
36        114.967106669541           119.413403707        108.668535560859       0.301996744525226       0.328616075720461   -1.87667379807116e-05
37        117.008488275303        112.561521261021        108.647350351281        1.08939178289934        0.80329960077832      0.0996734394262125
38        117.047438514131        119.440094547185          108.6931620566     -0.0906922790284615      -0.427873450700205      -0.053270919936132
39                     100                     100              105.656854       0.212235476642676       0.214087026058448      -0.975689259676533
40                     100                     100              102.828427       0.431950763393328        0.43032919937449   -0.000391487509271761
41                     100                     100                     100       0.212196188695362       0.213522312207541       0.976348049618642
42                     102                     102              105.656854      -0.344593043147622      -0.347764699943584      -0.277972209207367
43                     102                     102              102.828427     -0.0508117851094115     -0.0481565923090825    0.000723757166397643
44                     102                     102                     100      -0.344550601916342      -0.346594911954415       0.276796073513976
45                     104                     100              105.656854      0.0958097817876779       0.960259546691249      -0.808946648217993
46                     104                     100              102.828427     -0.0637871117170392       0.726533650305048   -0.000303196103461537
47                     104                     100                     100       0.096170832327391       0.959573606197947       0.809420104424319
48                     106                     102              105.656854      -0.149108834555562      -0.515216770839797      -0.381458114949507
49                     106                     102              102.828427       0.142211566804448      0.0667847615184794    0.000437672528184641
50                     106                     102                     100      -0.150116259439621      -0.513932623219411       0.380820354746708
51                     108                     100              105.656854       0.109488521119733        1.06026862128403       -0.80192238267695
52                     108                     100              102.828427      -0.111489929563333       0.639713090461002    0.000222966791929403
53                     108                     100                     100       0.110555549947848        1.06015762458505       0.801488977638963
54                     110                     102              105.656854      -0.142975331945735      -0.582083199179139      -0.373812909949375
55                     110                     102              102.828427       0.147786283982345       0.134982898864698   -0.000907155316978332
56                     110                     102                     100      -0.145422306710843      -0.582736119496835       0.375399232776183
57                     112                     100              105.656854       0.131570419403105        1.10850720529682      -0.810708782514398
58                     112                     100              102.828427      -0.135373154280857       0.589365940905588     0.00115049856286535
59                     112                     100                     100       0.132767313650888        1.10992940484843       0.808741092944129
60                     114                     102              105.656854      -0.163655218667356      -0.618801180228046      -0.361309115654895
61                     114                     102              102.828427       0.168619637777552       0.174860662939268    -0.00262684055102414
62                     114                     102                     100       -0.16518373335859      -0.622728534959414       0.365672518862047
63                     116                     100              105.656854       0.166529295480599        1.14391435770657       -0.82127694499591
64                     116                     100              102.828427      -0.170719792165248       0.552249967486335     0.00167107135481886
65                     116                     100                     100       0.166544919896779        1.14630222125815       0.818460250478657
66                     118                     102              105.656854      -0.209485374464473      -0.650944754507573      -0.347864478628085
67                     118                     102              102.828427       0.214336530414747       0.208066838716073    -0.00264597556372626
68                     118                     102                     100      -0.208006087552852      -0.654896275765167       0.352256915035957
69                     120                     100              105.656854       0.223207284872448        1.18252125337431      -0.835289782894807
70                     120                     100              102.828427      -0.228625331069877       0.512913437329924     0.00117338237913504
71                     120                     100                     100        0.22203858322497        1.18397141320889         0.8332847787529
72                     122                     102              105.656854       -0.28877031011841      -0.688111317688718      -0.330251429696747
73                     122                     102              102.828427       0.293554522032732       0.244442327609625   -0.000960728405768347
74                     122                     102                     100      -0.286361409044147      -0.688835680007651       0.331922434082547
75                     124                     100              105.656854       0.326331964460404        1.23679957328313      -0.852142785957787
76                     124                     100              102.828427      -0.322971925954113        0.45941856540455    0.000262389218302336
77                     124                     100                     100       0.325279251019226        1.23673751491481       0.851643472160737
78                     126                     102              105.656854      -0.461622787929271      -0.727845801684049       -0.33198647000583
79                     126                     102              102.828427       0.397170942913851       0.281832239462962    0.000368779257706218
80                     126                     102                     100      -0.460617462126937      -0.726651266952134       0.331462089296251
81                     128                     100              105.656854       0.708212091129367        1.34079267942101      -0.754770242822421
82                     128                     100              102.828427      -0.280872194580183       0.396007979638441   -0.000260786184146555
83                     128                     100                     100       0.707846428640791        1.34015493435565       0.755170888519202
84                     130                     102              105.656854        -1.3405197544321      -0.708802842689224      -0.755380006531724
85                     130                     102              102.828427      -0.395932987380485       0.281078463649703    0.000664918283599071
86                     130                     102                     100       -1.34053985277471       -0.70769706824995       0.754304144725325
87                     100                     104              105.656854       0.959251939419358       0.100190822080304      -0.808423502790366
88                     100                     104              102.828427       0.727537175875186     -0.0673565279745952    -0.00108827824683353
89                     100                     104                     100       0.958639308570645      0.0988190872173762       0.810216611869946
90                     102                     106              105.656854      -0.514078683483086      -0.157376879648944      -0.382824164816173
91                     102                     106              102.828427      0.0654386928815003       0.148391799605618     0.00226973756879403
92                     102                     106                     100      -0.512599100758682      -0.154252321207385       0.379197155450694
93                     104                     104              105.656854       0.247330017038741        0.25324553990885      -0.388484973581081
94                     104                     104              102.828427      -0.180070600223935      -0.184672350486829    -0.00141571958773695
95                     104                     104                     100       0.247386547491252       0.250625496484371        0.39070967164123
96                     106                     106              105.656854      -0.233304293401702      -0.245691857912592      -0.504807890525335
97                     106                     106              102.828427       0.225338018914804       0.233800185912552     0.00287878938211163
98                     106                     106                     100      -0.234141522866342      -0.239337632846064       0.500276835124796
99                     108                     104              105.656854       0.172905597344522       0.339091047190488      -0.375201298637694
100                     108                     104              102.828427      -0.176998818447135      -0.269070517372802   -0.000407781204708172
101                     108                     104                     100       0.175971382461908       0.336897867877975       0.375714756857437
102                     110                     106              105.656854      -0.180800961258813      -0.293722328918161       -0.49010399016967
103                     110                     106              102.828427       0.191506368489788       0.285934775392467   -0.000893275782578137
104                     110                     106                     100      -0.190542384564114      -0.291936837880229       0.491750034974237
105                     112                     104              105.656854         0.1663371851651       0.379403776852645      -0.390990461026549
106                     112                     104              102.828427      -0.173704642200044      -0.314536078836386     0.00303754717084337
107                     112                     104                     100       0.171482477975736       0.383477281416598       0.385904109534532
108                     114                     106              105.656854        -0.1872148019906      -0.307052645837697      -0.466583569737661
109                     114                     106              102.828427       0.196926020238014       0.311566373118345     -0.0086438455781342
110                     114                     106                     100      -0.194812106100379      -0.322259396683673       0.481528968691741
111                     116                     104              105.656854       0.198080439245325       0.404875581488451      -0.406581860723165
112                     116                     104              102.828427      -0.203309861488834      -0.343988391602713     0.00536894444792093
113                     116                     104                     100       0.198122030411407       0.413868813971579       0.397730774927372
114                     118                     106              105.656854      -0.241696433675447      -0.329132163065005       -0.45062775643643
115                     118                     106              102.828427       0.243669039750359       0.334413984020535    -0.00870014873088934
116                     118                     106                     100      -0.234234996250005      -0.344430158685264       0.465654663558941
117                     120                     104              105.656854       0.260884487542219       0.435915087468611      -0.421755725025656
118                     120                     104              102.828427      -0.265132003329598      -0.372942654298639     0.00310108423038849
119                     120                     104                     100        0.25581898841861       0.440075093403804       0.416576941503579
120                     122                     106              105.656854       -0.31921333070111      -0.363359416296935      -0.438196933309005
121                     122                     106              102.828427       0.320264794997778       0.358010780739335    -0.00105594756115614
122                     122                     106                     100      -0.309610032494197      -0.361823341376242       0.440087807373447
123                     124                     104              105.656854       0.368243780831782       0.464136444526715      -0.438598657125421
124                     124                     104              102.828427      -0.362591126226551      -0.398108847672459   -0.000296371912148026
125                     124                     104                     100       0.365212544192802       0.462107285745521       0.438937450744322
126                     126                     106              105.656854      -0.465946529378817      -0.369587484455021      -0.441571150845288
127                     126                     106              102.828427       0.400982734626365       0.361802664244172     0.00267760348796451
128                     126                     106                     100      -0.465066477976113      -0.363538921831374       0.437361960088452
129                     128                     104              105.656854       0.727872392011731       0.462516684705065      -0.330697136718479
130                     128                     104              102.828427      -0.282538862210341      -0.397196867546609    -0.00130963261852724
131                     128                     104                     100       0.727779356037955        0.46003157012564        0.33274819779662
132                     130                     106              105.656854       -1.23643286921698      -0.328402483148329      -0.853572334517588
133                     130                     106              102.828427       -0.45891261783824       0.323967471302598     0.00213354541186887
134                     130                     106                     100        -1.2378159699834      -0.325427661817861       0.850168938576149
135                     100                     108              105.656854        1.06332301779738       0.116814863556166      -0.799921556505142
136                     100                     108              102.828427       0.637972491861696      -0.117045849091654    -0.00256476339027325
137                     100                     108                     100        1.06079863231302       0.114320318689083       0.804069906532199
138                     102                     110              105.656854      -0.590552463858356      -0.155888322615571      -0.379233568987841
139                     102                     110              102.828427       0.139098160392119       0.156488176594635     0.00557071189483008
140                     102                     110                     100      -0.583997556210342      -0.150605418272892       0.370330667742341
141                     104                     108              105.656854       0.338819228826103        0.19011933272775      -0.370908271617528
142                     104                     108              102.828427      -0.267367746724522      -0.188070815826521    -0.00511664844928126
143                     104                     108                     100         0.3349079227668       0.182332700707246       0.379107451237706
144                     106                     110              105.656854      -0.299367187129448      -0.220084971502738      -0.507234969546935
145                     106                     110              102.828427       0.283641721104379       0.210789703741224      0.0119925191684767
146                     106                     110                     100      -0.288657178669256      -0.199522898807861       0.484905754029128
147                     108                     108              105.656854       0.221904559762362       0.252235691756607      -0.358191827101372
148                     108                     108              102.828427      -0.228783054867747      -0.244897469726622    -0.00549140582116989
149                     108                     108                     100       0.227940609457206       0.236033785255061       0.368474563545212
150                     110                     110              105.656854      -0.178872828735942      -0.259861928509809      -0.492486313749436
151                     110                     110              102.828427       0.215425259224474       0.243710820476763     0.00588983585886183
152                     110                     110                     100      -0.221509980744384      -0.232650406077318       0.474741439466616
153                     112                     108              105.656854        0.17448804016331       0.257334038386776      -0.393301972166109
154                     112                     108              102.828427      -0.197502129257395      -0.269660317884994     0.00789580000405293
155                     112                     108                     100       0.200951322634704        0.26741968700237       0.378243389861178
156                     114                     110              105.656854      -0.176607644282986        -0.1855559493462      -0.385494130186798
157                     114                     110              102.828427       0.208323028665167       0.246553115106502     -0.0265934521769765
158                     114                     110                     100       -0.21310079272244      -0.249326395692936       0.469677734379939
159                     116                     108              105.656854       0.219919041877002       0.250084563621034      -0.425967818999227
160                     116                     108              102.828427      -0.225954923891914      -0.281931485651123      0.0191455814771623
161                     116                     108                     100        0.22009667436508        0.28611352843313       0.388987870374054
162                     118                     110              105.656854      -0.285947690620268      -0.196246117303474      -0.367155883136751
163                     118                     110              102.828427        0.26682134982346       0.258011645002087     -0.0266765991475775
164                     118                     110                     100      -0.249414433094132      -0.260327587128548       0.452342428179394
165                     120                     108              105.656854       0.300167932266111       0.290678736206282      -0.428308162208749
166                     120                     108              102.828427      -0.290418737625035      -0.304257645654728      0.0080625038982051
167                     120                     108                     100        0.27392494317698       0.300981617749291       0.412954318928154
168                     122                     110              105.656854      -0.356477220997359      -0.292863240441856      -0.435173321060299
169                     122                     110              102.828427       0.333740799412486       0.278227935404377      0.0054839044193259
170                     122                     110                     100      -0.315038135133728      -0.266124000565623        0.41849832867699
171                     124                     108              105.656854       0.374823437499221       0.321066284824224      -0.430970866891782
172                     124                     108              102.828427      -0.368033961130817      -0.316507324323434    -0.00512563464268125
173                     124                     108                     100       0.368876295577771       0.305556190860686       0.440597892878825
174                     126                     110              105.656854      -0.436531964370225      -0.274953062874671      -0.435037907444486
175                     126                     110              102.828427       0.380036648440549       0.268188066081219      0.0113909239134798
176                     126                     110                     100      -0.446729604731465      -0.255327378985488       0.413889880665572
177                     128                     108              105.656854       0.687928548903436       0.293771102546968      -0.326426872999854
178                     128                     108              102.828427       -0.24649771520913      -0.295342147001201    -0.00483437237202896
179                     128                     108                     100       0.691615006793434       0.286347795871384       0.334164215684343
180                     130                     110              105.656854       -1.17930063821236       -0.22793418100132      -0.838988088453891
181                     130                     110              102.828427      -0.513020497995776       0.231063777900353     0.00528162862423848
182                     130                     110                     100       -1.18551892210236      -0.222893253803313        0.83055991488387
183                     100                     112              105.656854        1.11887181692892       0.138136988943901      -0.806364617603511
184                     100                     112              102.828427       0.583033520485409      -0.140111847005209    -0.00455693219968036
185                     100                     112                     100        1.11299009514296       0.135787709137627       0.813674392210045
186                     102                     114              105.656854      -0.639876014429806      -0.170289394325675      -0.371618799104633
187                     102                     114              102.828427       0.185611424275253       0.172926050630953     0.00894399664248465
188                     102                     114                     100      -0.626896978121627      -0.167627201829873        0.35719689531523
189                     104                     112              105.656854       0.402879225072513       0.187679008291144      -0.374236610936782
190                     104                     112              102.828427      -0.322910166706184      -0.185726564041635     -0.0123498884161648
191                     104                     112                     100       0.385202927285536       0.177580428901016       0.395444178793031
192                     106                     114              105.656854      -0.358672594407934      -0.208019649221773      -0.518584083111452
193                     106                     114              102.828427       0.322758886566334       0.207565904513895      0.0242904519956008
194                     106                     114                     100      -0.322791960932161      -0.199541423792031       0.466020773650908
195                     108                     112              105.656854       0.285687942628611       0.259305808522217      -0.304039860614355
196                     108                     112              102.828427      -0.262673200890173      -0.223613011854746     -0.0231864760406731
197                     108                     112                     100       0.261412198441592       0.211014702046195       0.389930274866749
198                     110                     114              105.656854      -0.153029868681111      -0.194172380044935      -0.759701954355462
199                     110                     114              102.828427       0.223311171845839       0.225405953543045      0.0177736151153481
200                     110                     114                     100      -0.239379459780631       -0.21987646034375       0.455875835530614
201                     112                     112              105.656854      0.0928654334408497       0.230160423646289        -0.4273726059491