ITEM: TIMESTEP
0
ITEM: NUMBER OF ATOMS
422
ITEM: BOX BOUNDS ff ff ff
0.0000000000000000e+00 2.3200000000000000e+02
0.0000000000000000e+00 2.3200000000000000e+02
0.0000000000000000e+00 2.3200000000000000e+02
ITEM: ATOMS id xu yu zu fx fy fz
1        113.190602758324        116.028191380163        108.701524564485       -3.50857569610699       -3.46217567906654       -0.62272373597543
2        118.847882112513        116.009623514077        108.677251272442       -1.55945243873886       -1.18437069871747      -0.195210522480301
3        117.393557285086        115.979007403934        108.648066291169       0.680185656856409      0.0068530369373036     -0.0043079370563826
4        114.585362287492        115.999242191479        108.671144248543        1.03568411761458        1.24557779303564       0.434103382220903
5        116.709059284188        114.757708966583        108.664838116419     -0.0656959021163844      -0.974601641645327     -0.0845219124192592
6        115.295986139865        114.769451757709        108.678013148998       -1.63155530934765       -1.87934199400013        -0.2952959096753
7        115.285522400051        117.236202740411        108.670034535024       -2.24479245072403       -1.67672800972899      -0.438316532134035
8        116.650838250708        117.176702655869        108.609102209286        6.38377231428931          6.831016236404        1.33204946379802
9        114.517339529941        113.548028850358        108.656436609183       0.453011337993312       0.188895867812406      0.0562460419843913
10        117.457098100363        113.547946021518        108.653398617632        1.21824825547115       0.375123517774522       0.286240608638464
11        114.525590234458        118.434072335578        108.669580683685      -0.340869853582071      -0.783495306673762     -0.0123373115062725
12        117.494803686403        118.463444389926        108.695997575748        -5.3395683630539       -5.45309331739638       -1.13894790258578
13        113.127310071424        113.562443399086        108.656852811188      -0.580094360611429      -0.818083847877233     -0.0987491771251492
14        113.137218086659        118.419324040819        108.671623278545      -0.571542967104728      -0.727981278317126      -0.121775817922705
15        118.889634934201        113.606859001605        108.695520708033       -3.35325601892065       -3.25734988630614      -0.645381052435311
16        118.830108247399        118.394304946483        108.640856475903        3.71414395501718         3.1956797449974       0.556910558055931
17         112.43624299663        117.203767102131        108.666301158491        1.76158483927188         1.3946506241908       0.498747725176177
18        112.440920982572        114.782971738896        108.668545923832      -0.865041323597056      -0.309303018612588       -0.25536361445621
19         119.56297685597         114.79478277155        108.673209659278       -1.55792171140598       -1.12128918999023      -0.342258402137547
20        119.549536921452        117.206816189383        108.662202946424       -1.10335726595787         -1.191758826779      -0.427667965925379
21        120.908297096979        114.777597160178        108.610016074355        8.87719321421097        9.22146622187061        2.07767487735771
22        120.939824996902        117.145321864227        108.643887634651        3.51635956772565        3.64115316783019       0.954634938805151
23        110.984148229343        114.777981385675        108.620376556182        7.36185335141609        8.81569256484912       0.703770144340215
24        111.043372620483        117.173402579612        108.681944607338       -1.79742227906741       -2.66720381819245      -0.465649885222479
25        121.634315070998        116.039585688377        108.704442610259       -6.74739548725328       -7.89801497831284       -1.82854882428711
26         110.38031529619        115.974374700383        108.650478721718      0.0586584041828645       0.887170127268949     -0.0362938991637195
27        121.601996187169        118.178722282271        108.649654141345       -1.04806684565159     -0.0443239871698623      -0.137121574147441
28        121.605196529415        113.789715812409        108.648448242715       -1.25062135621691       -1.78547092309238      -0.327875955863182
29        110.392631184988        118.207441921557        108.689670434261      0.0889153465886731      -0.163037121476068      0.0590103575823172
30        110.404879053931          113.8274829804        108.697512063671       -4.36664728399017       -5.86192075150951      0.0308635076103174
31        112.557927196965        112.573515174816        108.614914374723       0.942892075192503         1.4945858722243      0.0983843769796164
32        112.580569767201        119.337949587811        108.644320266602       0.156824054276359       0.490284108473913      0.0404097988844895
33        119.343453302434        112.585403504113        108.619993769482       0.483470247254828        1.37888690833204       0.266583870680783
34         119.39941174583        119.383153799076        108.682715538687      -0.886108934287608        -1.5211050906081      -0.227383125628424
35        114.927913185125        112.534587176137        108.622480612258       0.127861711688674       0.645125714436531      0.0600783544420883
36        114.931270895517        119.377567932976        108.632699786835       0.943091934974471        1.28268686734831    -0.00954340315887898
37        116.981949516537        112.534982502255        108.620811592515         0.8029986173896        1.12480962595606      0.0678537644583364
38        117.025387384038        119.418043417092        108.671110926507       0.211236846320048       0.560991365730046       0.191712690291384
39                     100                     100              105.656854                       0                       0                       0
40                     100                     100              102.828427                       0                       0                       0
41                     100                     100                     100                       0                       0                       0
42                     102                     102              105.656854                       0                       0                       0
43                     102                     102              102.828427                       0                       0                       0
44                     102                     102                     100                       0                       0                       0
45                     104                     100              105.656854                       0                       0                       0
46                     104                     100              102.828427                       0                       0                       0
47                     104                     100                     100                       0                       0                       0
48                     106                     102              105.656854                       0                       0                       0
49                     106                     102              102.828427                       0                       0                       0
50                     106                     102                     100                       0                       0                       0
51                     108                     100              105.656854                       0                       0                       0
52                     108                     100              102.828427                       0                       0                       0
53                     108                     100                     100                       0                       0                       0
54                     110                     102              105.656854                       0                       0                       0
55                     110                     102              102.828427                       0                       0                       0
56                     110                     102                     100                       0                       0                       0
57                     112                     100              105.656854                       0                       0                       0
58                     112                     100              102.828427                       0                       0                       0
59                     112                     100                     100                       0                       0                       0
60                     114                     102              105.656854                       0                       0                       0
61                     114                     102              102.828427                       0                       0                       0
62                     114                     102                     100                       0                       0                       0
63                     116                     100              105.656854                       0                       0                       0
64                     116                     100              102.828427                       0                       0                       0
65                     116                     100                     100                       0                       0                       0
66                     118                     102              105.656854                       0                       0                       0
67                     118                     102              102.828427                       0                       0                       0
68                     118                     102                     100                       0                       0                       0
69                     120                     100              105.656854                       0                       0                       0
70                     120                     100              102.828427                       0                       0                       0
71                     120                     100                     100                       0                       0                       0
72                     122                     102              105.656854                       0                       0                       0
73                     122                     102              102.828427                       0                       0                       0
74                     122                     102                     100                       0                       0                       0
75                     124                     100              105.656854                       0                       0                       0
76                     124                     100              102.828427                       0                       0                       0
77                     124                     100                     100                       0                       0                       0
78                     126                     102              105.656854                       0                       0                       0
79                     126                     102              102.828427                       0                       0                       0
80                     126                     102                     100                       0                       0                       0
81                     128                     100              105.656854                       0                       0                       0
82                     128                     100              102.828427                       0                       0                       0
83                     128                     100                     100                       0                       0                       0
84                     130                     102              105.656854                       0                       0                       0
85                     130                     102              102.828427                       0                       0                       0
86                     130                     102                     100                       0                       0                       0
87                     100                     104              105.656854                       0                       0                       0
88                     100                     104              102.828427                       0                       0                       0
89                     100                     104                     100                       0                       0                       0
90                     102                     106              105.656854                       0                       0                       0
91                     102                     106              102.828427                       0                       0                       0
92                     102                     106                     100                       0                       0                       0
93                     104                     104              105.656854                       0                       0                       0
94                     104                     104              102.828427                       0                       0                       0
95                     104                     104                     100                       0                       0                       0
96                     106                     106              105.656854                       0                       0                       0
97                     106                     106              102.828427                       0                       0                       0
98                     106                     106                     100                       0                       0                       0
99                     108                     104              105.656854                       0                       0                       0
100                     108                     104              102.828427                       0                       0                       0
101                     108                     104                     100                       0                       0                       0
102                     110                     106              105.656854                       0                       0                       0
103                     110                     106              102.828427                       0                       0                       0
104                     110                     106                     100                       0                       0                       0
105                     112                     104              105.656854                       0                       0                       0
106                     112                     104              102.828427                       0                       0                       0
107                     112                     104                     100                       0                       0                       0
108                     114                     106              105.656854                       0                       0                       0
109                     114                     106              102.828427                       0                       0                       0
110                     114                     106                     100                       0                       0                       0
111                     116                     104              105.656854                       0                       0                       0
112                     116                     104              102.828427                       0                       0                       0
113                     116                     104                     100                       0                       0                       0
114                     118                     106              105.656854                       0                       0                       0
115                     118                     106              102.828427                       0                       0                       0
116                     118                     106                     100                       0                       0                       0
117                     120                     104              105.656854                       0                       0                       0
118                     120                     104              102.828427                       0                       0                       0
119                     120                     104                     100                       0                       0                       0
120                     122                     106              105.656854                       0                       0                       0
121                     122                     106              102.828427                       0                       0                       0
122                     122                     106                     100                       0                       0                       0
123                     124                     104              105.656854                       0                       0                       0
124                     124                     104              102.828427                       0                       0                       0
125                     124                     104                     100                       0                       0                       0
126                     126                     106              105.656854                       0                       0                       0
127                     126                     106              102.828427                       0                       0                       0
128                     126                     106                     100                       0                       0                       0
129                     128                     104              105.656854                       0                       0                       0
130                     128                     104              102.828427                       0                       0                       0
131                     128                     104                     100                       0                       0                       0
132                     130                     106              105.656854                       0                       0                       0
133                     130                     106              102.828427                       0                       0                       0
134                     130                     106                     100                       0                       0                       0
135                     100                     108              105.656854                       0                       0                       0
136                     100                     108              102.828427                       0                       0                       0
137                     100                     108                     100                       0                       0                       0
138                     102                     110              105.656854                       0                       0                       0
139                     102                     110              102.828427                       0                       0                       0
140                     102                     110                     100                       0                       0                       0
141                     104                     108              105.656854                       0                       0                       0
142                     104                     108              102.828427                       0                       0                       0
143                     104                     108                     100                       0                       0                       0
144                     106                     110              105.656854                       0                       0                       0
145                     106                     110              102.828427                       0                       0                       0
146                     106                     110                     100                       0                       0                       0
147                     108                     108              105.656854                       0                       0                       0
148                     108                     108              102.828427                       0                       0                       0
149                     108                     108                     100                       0                       0                       0
150                     110                     110              105.656854                       0                       0                       0
151                     110                     110              102.828427                       0                       0                       0
152                     110                     110                     100                       0                       0                       0
153                     112                     108              105.656854                       0                       0                       0
154                     112                     108              102.828427                       0                       0                       0
155                     112                     108                     100                       0                       0                       0
156                     114                     110              105.656854                       0                       0                       0
157                     114                     110              102.828427                       0                       0                       0
158                     114                     110                     100                       0                       0                       0
159                     116                     108              105.656854                       0                       0                       0
160                     116                     108              102.828427                       0                       0                       0
161                     116                     108                     100                       0                       0                       0
162                     118                     110              105.656854                       0                       0                       0
163                     118                     110              102.828427                       0                       0                       0
164                     118                     110                     100                       0                       0                       0
165                     120                     108              105.656854                       0                       0                       0
166                     120                     108              102.828427                       0                       0                       0
167                     120                     108                     100                       0                       0                       0
168                     122                     110              105.656854                       0                       0                       0
169                     122                     110              102.828427                       0                       0                       0
170                     122                     110                     100                       0                       0                       0
171                     124                     108              105.656854                       0                       0                       0
172                     124                     108              102.828427                       0                       0                       0
173                     124                     108                     100                       0                       0                       0
174                     126                     110              105.656854                       0                       0                       0
175                     126                     110              102.828427                       0                       0                       0
176                     126                     110                     100                       0                       0                       0
177                     128                     108              105.656854                       0                       0                       0
178                     128                     108              102.828427                       0                       0                       0
179                     128                     108                     100                       0                       0                       0
180                     130                     110              105.656854                       0                       0                       0
181                     130                     110              102.828427                       0                       0                       0
182                     130                     110                     100                       0                       0                       0
183                     100                     112              105.656854                       0                       0                       0
184                     100                     112              102.828427                       0                       0                       0
185                     100                     112                     100                       0                       0                       0
186                     102                     114              105.656854                       0                       0                       0
187                     102                     114              102.828427                       0                       0                       0
188                     102                     114                     100                       0                       0                       0
189                     104                     112              105.656854                       0                       0                       0
190                     104                     112              102.828427                       0                       0                       0
191                     104                     112                     100                       0                       0                       0
192                     106                     114              105.656854                       0                       0                       0
193                     106                     114              102.828427                       0                       0                       0
194                     106                     114                     100                       0                       0                       0
195                     108                     112              105.656854                       0                       0                       0
196                     108                     112              102.828427                       0                       0                       0
197                     108                     112                     100                       0                       0                       0
198                     110                     114              105.656854                       0                       0                       0
199                     110                     114              102.828427                       0                       0                       0
200                     110                     114                     100                       0                       0                       0
201                     112                     112              105.656854                       0                       0                       0