ITEM: TIMESTEP
0
ITEM: NUMBER OF ATOMS
422
ITEM: BOX BOUNDS pp pp pp
0.0000000000000000e+00 3.2000000000000000e+01
0.0000000000000000e+00 3.2000000000000000e+01
0.0000000000000000e+00 3.2000000000000000e+01
ITEM: ATOMS id xu yu zu fx fy fz
1        13.1459321938386        16.0835208156773                 8.65685    -0.00606022740200164     -0.0027762688405026     0.00822489769303822
2        18.8274848400711        16.0892262416344                 8.65685     0.00608437123537078    -0.00305212380290126     0.00880954030439031
3         17.402344993917         16.087795112765                 8.65685    -0.00556307834203781    -0.00369988578519787      0.0132795745951238
4         14.571072038949        16.0849519429358                 8.65685     0.00542754777149734    -0.00365114067053239       0.013730105029162
5        16.7010751677692        14.8497248501637                 8.65685     -0.0212724766941198      0.0144865590849027      0.0346070235208256
6        15.2748269908674        14.8482926087119                 8.65685      0.0218481171905543      0.0150461480696665      0.0364615917787934
7        15.2723418650276        17.3230222053877                 8.65685      0.0258442291637808     -0.0142739070560434      0.0453678967540673
8        16.6985900414216        17.3244544465825                 8.65685     -0.0251047254772422     -0.0136298308267713      0.0428796962052783
9        14.5177569207574        13.6484462411751                 8.65685      0.0313203046689998     -0.0212523321271113       0.156359871867015
10        17.4605534827313        13.6514014038861                 8.65685     -0.0322078163524489     -0.0207977739957728       0.154090249852928
11        14.5128635507729         18.521345651893                 8.65685      0.0283453015664417      0.0288150626340755       0.141399760863879
12        17.4556601106552        18.5243008141789                 8.65685     -0.0294065676342087      0.0283219848804899       0.137820036202555
13        13.1273112602358        13.6624445878976                 8.65685     -0.0388764048640922      -0.015047552025049       0.111030215649485
14        13.1224488081137        18.5045547622743                 8.65685     -0.0355954050058366      0.0204888096594768      0.0997296643775457
15         18.850968226168        13.6681922935721                 8.65685      0.0389192920399259     -0.0151792082574609       0.114354083478938
16        18.8461057714963        18.5103024705805                 8.65685       0.035396541259162      0.0213612387620051        0.10326666071978
17         12.426795838139        17.2943199436399                 8.65685     -0.0159728665786224    -0.00890753423285254      0.0224543377995205
18        12.4292290587396        14.8712798150634                 8.65685     -0.0135934158021954     0.00924603208145809      0.0174871983888737
19        19.5466211966922        14.8784271122721                 8.65685      0.0141869919067361     0.00961943492225042      0.0183967016416407
20        19.5441879750283        17.3014672429596                 8.65685      0.0170842636231301    -0.00930310133502624      0.0243083501197828
21        20.9551350226241        14.9244350858224                 8.65685     -0.0235868438360078      0.0209601616821984      0.0499674134544167
22        20.9527913622507        17.2582882295758                 8.65685     -0.0285639931688237     -0.0203741476728132      0.0629817970307007
23        11.0206256731611        14.9144588294926                 8.65685      0.0240852830349983      0.0216540855150477      0.0527052919611081
24        11.0182820131454        17.2483119722736                 8.65685      0.0286096678598004     -0.0212338968207603      0.0651438421697692
25        21.5867264607395        16.0919970781177                 8.65685    -0.00157453488792578     -0.0017581969937357    -0.00184804698797671
26        10.3866905744716        16.0807499786644                 8.65685     0.00148800828919814    -0.00156539373406483    -0.00176064423049448
27         21.609196045824        18.2859221409264                 8.65685     -0.0108155795056901     0.00790531944777639      0.0654268444313591
28        21.6136022867001        13.8981215696947                 8.65685     -0.0112281422168744    -0.00295464210988133      0.0694213541306163
29        10.3598147507275        18.2746254872963                 8.65685      0.0101490303513841     0.00774043228897689      0.0669837830452751
30        10.3642209902605        13.8868249167297                 8.65685      0.0106799891223723    -0.00331314515391979      0.0702042125815414
31        12.5998668222426        12.7154548000933                 8.65685   -0.000765350581249783   -0.000654721467060809    -0.00888194252172549
32        12.5931035005993        19.4504833212092                 8.65685    -0.00044864365973126    0.000480798296643018    -0.00941931743696595
33        19.3803135329519        12.7222637346313                 8.65685    0.000805439162981686   -0.000702899066120546    -0.00877986262800193
34        19.3735502071424         19.457292260389                 8.65685    0.000465913575855112    0.000530036306321036      -0.009349222771829
35        14.9622865728669        12.6689605638796                 8.65685     0.00108423501903787     -0.0016697214433784    -0.00706511501621142
36         14.955425108682        19.5017221461408                 8.65685     0.00067313227489646     0.00128261357113441    -0.00814712686041169
37        17.0179919240215        12.6710249097393                 8.65685    -0.00107887963917053    -0.00162061070409689    -0.00715447507945282
38         17.011130457531        19.5037864905846                 8.65685   -0.000653109723894985     0.00120714624747678    -0.00828203652126236
39                       0                       0                5.656854                       0                       0                       0
40                       0                       0                2.828427                       0                       0                       0
41                       0                       0                       0                       0                       0                       0
42                       2                       2                5.656854    4.89626451427326e-10    6.95833348914785e-10    1.75614369525455e-10
43                       2                       2                2.828427                       0                       0                       0
44                       2                       2                       0                       0                       0                       0
45                       4                       0                5.656854                       0                       0                       0
46                       4                       0                2.828427                       0                       0                       0
47                       4                       0                       0                       0                       0                       0
48                       6                       2                5.656854     1.5364668187052e-08    3.10539237649294e-08    7.97153297279218e-09
49                       6                       2                2.828427    4.78094140586594e-10    9.81858117088182e-10     4.9807220847962e-10
50                       6                       2                       0                       0                       0                       0
51                       8                       0                5.656854    6.75376900736602e-10   -2.39055117530146e-10    4.74356063776488e-10
52                       8                       0                2.828427    3.93632407211163e-10   -1.15535791645705e-10    4.99174357357158e-10
53                       8                       0                       0                       0                       0                       0
54                      10                       2                5.656854    6.69626574909173e-08    2.60268200470256e-07    6.82257283621608e-08
55                      10                       2                2.828427    2.28755148676773e-09    9.26212390398792e-09    4.72165534865275e-09
56                      10                       2                       0    8.58624097390046e-10    3.71949305045555e-09     2.8633814520945e-09
57                      12                       0                5.656854    1.26188541393292e-09   -1.40634205176613e-09    2.16742449979259e-09
58                      12                       0                2.828427    1.52948559089137e-09   -2.30089511598957e-09    4.80173341044232e-09
59                      12                       0                       0                       0                       0                       0
60                      14                       2                5.656854    4.16676503305737e-08    6.40875514619608e-07    1.70705001854615e-07
61                      14                       2                2.828427    1.44299256947267e-09    2.25221260356636e-08    1.16115652488784e-08
62                      14                       2                       0    7.10292482784263e-10    9.74217731373306e-09    7.56665259136248e-09
63                      16                       0                5.656854   -6.56397224638833e-12   -2.19337837957561e-09    3.41455267777205e-09
64                      16                       0                2.828427   -7.59382958979718e-12   -4.06995634693007e-09    8.24757652466903e-09
65                      16                       0                       0                       0                       0                       0
66                      18                       2                5.656854   -4.26776729081077e-08    6.37247474603291e-07    1.69706502467736e-07
67                      18                       2                2.828427   -1.47900677123184e-09     2.2405818619448e-08    1.15490923526043e-08
68                      18                       2                       0   -7.25580237331294e-10    9.69775480525507e-09    7.53059716824668e-09
69                      20                       0                5.656854    -1.2673166761282e-09   -1.44639959583801e-09    2.15693872278272e-09
70                      20                       0                2.828427   -1.46572741204113e-09   -2.97286595258156e-09    5.05121447572052e-09
71                      20                       0                       0                       0                       0                       0
72                      22                       2                5.656854   -6.63427083034666e-08    2.55989885819795e-07    6.70701005815444e-08
73                      22                       2                2.828427   -2.26964288164776e-09    9.12153286435921e-09    4.64755842295581e-09
74                      22                       2                       0   -8.53643117947593e-10    3.66926317444291e-09    2.82307581471167e-09
75                      24                       0                5.656854   -6.70903438446091e-10   -2.52081077035493e-10    4.68933167591149e-10
76                      24                       0                2.828427   -3.91069048402353e-10   -1.19639397766789e-10    4.92988045489857e-10
77                      24                       0                       0                       0                       0                       0
78                      26                       2                5.656854   -1.50279872678266e-08    3.02668057991586e-08    7.76440896731546e-09
79                      26                       2                2.828427   -4.68381558887497e-10    9.58643106314774e-10    4.85947854668332e-10
80                      26                       2                       0                       0                       0                       0
81                      28                       0                5.656854                       0                       0                       0
82                      28                       0                2.828427                       0                       0                       0
83                      28                       0                       0                       0                       0                       0
84                      30                       2                5.656854   -4.74618806258812e-10    6.73360893339834e-10    1.69781420936327e-10
85                      30                       2                2.828427                       0                       0                       0
86                      30                       2                       0                       0                       0                       0
87                       0                       4                5.656854    5.01367444147938e-12    2.77422058224258e-10    8.41320204483239e-11
88                       0                       4                2.828427                       0                       0                       0
89                       0                       4                       0                       0                       0                       0
90                       2                       6                5.656854    9.00285746904187e-08    8.35377557458797e-08    3.07347659708087e-08
91                       2                       6                2.828427     3.3894605951254e-09    3.10737467410958e-09    2.22104409626445e-09
92                       2                       6                       0    9.91662605185229e-10    9.35062494483471e-10    1.02635672033223e-09
93                       4                       4                5.656854    9.89616357293432e-09    1.36289571749947e-08    4.11296657418251e-09
94                       4                       4                2.828427    1.20583676988151e-08    1.68081621623784e-08    9.80995083574966e-09
95                       4                       4                       0    1.33427179914706e-10    1.86926003269303e-10    1.68166055629732e-10
96                       6                       6                5.656854    2.91715156063389e-06    4.36211710122908e-06     1.6440344674113e-06
97                       6                       6                2.828427    8.16298898214724e-08    1.20392171832581e-07     8.7556557817788e-08
98                       6                       6                       0    3.17397305798692e-08    4.60445322448834e-08    4.98723304480685e-08
99                       8                       4                5.656854    1.12489593793074e-07    2.66124722589499e-07    8.24999359945677e-08
100                       8                       4                2.828427     1.1573473915921e-07    2.71819136527924e-07    1.62851043567953e-07
101                       8                       4                       0      1.581229780419e-09    3.70612333123774e-09    3.30770448650853e-09
102                      10                       6                5.656854    1.88629340624698e-05    5.66764848285186e-05    2.24910423581008e-05
103                      10                       6                2.828427    4.00198858145771e-07    1.18210957409661e-06    8.97311872516824e-07
104                      10                       6                       0    1.23669306518359e-07    3.56979072570741e-07    3.96328921511955e-07
105                      12                       4                5.656854    2.25418171509939e-07    1.36063396032933e-06    4.35423353133565e-07
106                      12                       4                2.828427    2.06225750074674e-07    1.20993079294159e-06    7.45202216060623e-07
107                      12                       4                       0    2.61475921160628e-09    1.49404766477657e-08    1.35729119575148e-08
108                      14                       6                5.656854    1.05768116652985e-05    0.000160061462644089    6.56283778888323e-05
109                      14                       6                2.828427    2.22012798779733e-07    2.96413196717861e-06    2.31811033247267e-06
110                      14                       6                       0    6.80134313860252e-08    8.05743666685078e-07    9.17010940720735e-07
111                      16                       4                5.656854   -2.11788884723566e-09    2.03912792148271e-06    6.59058728404926e-07
112                      16                       4                2.828427    -1.8513419082504e-09    1.77583163545216e-06    1.10417429509022e-06
113                      16                       4                       0   -2.24819919223127e-11    2.14507005762988e-08    1.96546477647857e-08
114                      18                       6                5.656854    -1.0880883933248e-05    0.000159103110548666    6.52072575409323e-05
115                      18                       6                2.828427   -2.27704904108532e-07    2.94900916240499e-06    2.30538385720981e-06
116                      18                       6                       0   -6.95878572982612e-08    8.02292271065341e-07    9.12763717741398e-07
117                      20                       4                5.656854   -2.25608892946084e-07    1.34447336675915e-06     4.3002504796983e-07
118                      20                       4                2.828427   -2.06594042689874e-07    1.19715174716601e-06    7.36966127546954e-07
119                      20                       4                       0   -2.62233774303264e-09    1.48041846002822e-08    1.34427443621203e-08
120                      22                       6                5.656854   -1.86413353018602e-05    5.56087080632482e-05    2.20463395620651e-05
121                      22                       6                2.828427   -3.96520509915124e-07    1.16299263168761e-06    8.82031916972483e-07
122                      22                       6                       0   -1.22832486808565e-07    3.52126081128249e-07    3.90627719399674e-07
123                      24                       4                5.656854   -1.10466984483996e-07    2.60067449476896e-07    8.05606334671714e-08
124                      24                       4                2.828427   -1.13897057533373e-07    2.66221409831471e-07    1.59380038528971e-07
125                      24                       4                       0    -1.5600283109335e-09    3.63929579393657e-09     3.2456495882679e-09
126                      26                       6                5.656854   -2.84184387000243e-06    4.23515947948355e-06    1.59444690455892e-06
127                      26                       6                2.828427    -7.9780143190086e-08    1.17277607958051e-07    8.52035166595816e-08
128                      26                       6                       0   -3.11315595240702e-08    4.50195982036368e-08     4.8712453678385e-08
129                      28                       4                5.656854   -9.61799646578891e-09    1.32127022312775e-08    3.98388595615484e-09
130                      28                       4                2.828427   -1.17449560278463e-08    1.63313933384536e-08    9.52332383161727e-09
131                      28                       4                       0   -9.34980619835966e-11    1.44910358795414e-10    1.26737909885741e-10
132                      30                       6                5.656854    -8.7021322278698e-08    8.06819769800357e-08    2.96514523522023e-08
133                      30                       6                2.828427   -3.28663766427127e-09    3.00846550511612e-09    2.14792815564664e-09
134                      30                       6                       0    -9.6494541524294e-10    9.08763984043096e-10    9.96063864786466e-10
135                       0                       8                5.656854    3.67956136018675e-10    1.20149435166503e-08    5.63661017860289e-09
136                       0                       8                2.828427    3.88761117138727e-10     1.3718559533552e-08    1.26591873107652e-08
137                       0                       8                       0    3.68457474166221e-12    1.42297650575221e-10     2.0905789337786e-10
138                       2                      10                5.656854    3.04355381911166e-06    1.57465488869818e-06    1.05337946847109e-06
139                       2                      10                2.828427    8.67862713668899e-08    4.53093127864864e-08     5.7852439992656e-08
140                       2                      10                       0    3.52578863406215e-08    1.85285490836497e-08    3.45634399336318e-08
141                       4                       8                5.656854    9.33389938805056e-07    8.41588920462891e-07    4.06874950381032e-07
142                       4                       8                2.828427    7.86777149539092e-07    7.06270163008105e-07    6.56044104018234e-07
143                       4                       8                       0    9.29322309567437e-09    8.29597850558281e-09    1.13251276021194e-08
144                       6                      10                5.656854    0.000256418484131484    0.000223602316151271    0.000158293487396091
145                       6                      10                2.828427    3.71876111266305e-06    3.21352616771523e-06    4.29171004469865e-06
146                       6                      10                       0       8.31266150205e-07    7.11151251606851e-07    1.36505332446539e-06
147                       8                       8                5.656854    2.06924605884535e-05    3.52370820601959e-05    1.78717163225631e-05
148                       8                       8                2.828427    1.10270499500013e-05    1.81543442603898e-05    1.75854703589841e-05
149                       8                       8                       0    8.51117437144402e-08    1.35713770199264e-07    1.91320796316911e-07
150                      10                      10                5.656854     0.00258977725491975       0.005275336433866     0.00409341203174022
151                      10                      10                2.828427    2.24141444734923e-05    4.36280150877534e-05    6.27231964938662e-05
152                      10                      10                       0    3.30121819197194e-06    6.06370388132323e-06    1.23299683830117e-05
153                      12                       8                5.656854    5.47458428279711e-05    0.000256468713553058    0.000141412037069315
154                      12                       8                2.828427    2.13972117636282e-05    9.52610602815771e-05    9.83584293807846e-05
155                      12                       8                       0    1.31752266300015e-07    5.51311031880356e-07    8.15354723739074e-07
156                      14                      10                5.656854    0.000926538595393278      0.0141981598146773      0.0121395934608305
157                      14                      10                2.828427    8.93705913021024e-06    0.000104600614022107    0.000162975637733432
158                      14                      10                       0    1.44441111188268e-06    1.27751895628073e-05    2.75270356629079e-05
159                      16                       8                5.656854   -4.14224586688434e-07    0.000376370217766018     0.00021237866958303
160                      16                       8                2.828427   -1.57119117494382e-07     0.00013539624036723    0.000142907882260709
161                      16                       8                       0   -9.32602884007347e-10    7.63333684260623e-07    1.15092656965994e-06
162                      18                      10                5.656854   -0.000967267919620804       0.014148713181479      0.0120860760665479
163                      18                      10                2.828427   -9.22473509201083e-06    0.000104241284048004    0.000162273754135099
164                      18                      10                       0   -1.47920715029485e-06     1.2738326603926e-05    2.74280054034416e-05
165                      20                       8                5.656854   -5.47723378909587e-05    0.000253179992573875    0.000139440822751523
166                      20                       8                2.828427   -2.14467593857801e-05    9.42947324719676e-05    9.72644324950006e-05
167                      20                       8                       0    -1.3220891820324e-07    5.46811279717951e-07    8.08006685193496e-07
168                      22                      10                5.656854    -0.00255969933748222      0.0051798491209217     0.00401049720431819
169                      22                      10                2.828427   -2.22326147414844e-05    4.29850093971145e-05    6.16831743653264e-05
170                      22                      10                       0   -3.28376523812619e-06    5.99313289824847e-06    1.21677613425008e-05
171                      24                       8                5.656854   -2.02485305148954e-05    3.43148327964941e-05    1.73778220940442e-05
172                      24                       8                2.828427   -1.08373454977206e-05    1.77606863911497e-05     1.7180925740218e-05
173                      24                       8                       0   -8.38118826404867e-08    1.33216596822485e-07    1.87565419641624e-07
174                      26                      10                5.656854   -0.000248758029034224      0.0002163620557201    0.000152829012420926
175                      26                      10                2.828427   -3.62966673523582e-06    3.12834951073552e-06    4.16998235033789e-06
176                      26                      10                       0   -8.15423818846588e-07     6.9576270388174e-07    1.33333555326593e-06
177                      28                       8                5.656854    -9.0336704991459e-07    8.12905903548069e-07    3.92421305209549e-07
178                      28                       8                2.828427   -7.64604710404014e-07    6.84991229313459e-07    6.35399772456688e-07
179                      28                       8                       0   -9.07049051179307e-09    8.08076613716128e-09     1.1017183597053e-08
180                      30                      10                5.656854    -2.9344664797914e-06    1.51774689280964e-06    1.01344219983596e-06
181                      30                      10                2.828427   -8.39106889995426e-08     4.3886165557001e-08    5.59269012235354e-08
182                      30                      10                       0   -3.42913668651257e-08    1.80007703638715e-08    3.35253635756362e-08
183                       0                      12                5.656854    4.14462914430108e-09    6.03865726937003e-08    6.19668195640171e-08
184                       0                      12                2.828427    4.17289554129859e-09    6.78607854626696e-08    1.32157963264583e-07
185                       0                      12                       0    5.25279055496647e-11    1.01451189844093e-09    2.81688126882283e-09
186                       2                      14                5.656854    1.86753141819529e-05    2.81980473152039e-06    6.46792042299064e-06
187                       2                      14                2.828427    4.52696620075946e-07    7.24459858896406e-08    3.03285325612683e-07
188                       2                      14                       0    1.57565746420451e-07    2.64218224860709e-08     1.5415403618818e-07
189                       4                      12                5.656854    2.23960758283363e-05      8.778073858279e-06    9.99967502007102e-06
190                       4                      12                2.828427    1.24467596385665e-05    5.06298660022705e-06    1.06071991419748e-05
191                       4                      12                       0    9.93829992268647e-08    4.17148252353187e-08    1.23130243407634e-07
192                       6                      14                5.656854     0.00307857504601941    0.000675585963744094     0.00194061376770252
193                       6                      14                2.828427    2.88642492970461e-05    7.14181917879337e-06     3.4159796300642e-05
194                       6                      14                       0     4.4331264289806e-06    1.18576579498064e-06    7.46618468411702e-06
195                       8                      12                5.656854     0.00123287210837076    0.000999516684184793     0.00126230257130968
196                       8                      12                2.828427    0.000271753674031456    0.000217077801566761     0.00049211950277097
197                       8                      12                       0    1.08895981963723e-06    8.54992935562561e-07    2.67191255360534e-06
198                      10                      14                5.656854      -0.016935733102877     -0.0096689283342225      -0.129411817208025
199                      10                      14                2.828427    0.000177795557347845    0.000113983432883347    0.000620989253340218
200                      10                      14                       0    1.68576827585316e-05    1.04777988682012e-05    7.22231615733781e-05
201                      12                      12                5.656854     0.00181562373147388      0.0055390984866747     0.00766757745552619