ITEM: TIMESTEP
0
ITEM: NUMBER OF ATOMS
422
ITEM: BOX BOUNDS ff ff ff
0.0000000000000000e+00 2.3200000000000000e+02
0.0000000000000000e+00 2.3200000000000000e+02
0.0000000000000000e+00 2.3200000000000000e+02
ITEM: ATOMS id xu yu zu fx fy fz
1        113.745932193839        115.983520815677              108.656854   -0.000417282390135363   -0.000481186976726535       0.017607398396005
2        119.427484840071        115.989226241634              108.656854     -0.0012215537740421    -0.00112539531829381    -0.00271902810181827
3        118.002344993917        115.987795112765              108.656854      0.0030025783455078     0.00346434945528456      0.0184746581027617
4        115.171072038949        115.984951942936              108.656854     0.00577360200774451     0.00320079999185762     0.00482226095921614
5        117.301075167769        114.749724850164              108.656854     -0.0217344556207959      0.0321321453086757      0.0950845337170817
6        115.874826990867        114.748292608712              108.656854     0.00827068615755359     0.00836702609951795      0.0125141486730656
7        115.872341865028        117.223022205388              108.656854     0.00817129477119747   -0.000635151951563414      0.0117161660269318
8        117.298590041422        117.224454446583              108.656854     -0.0211727215970867     -0.0246454708873009      0.0918436838867731
9        115.117756920757        113.548446241175              108.656854      0.0367453390894454      -0.025117614769627      0.0764618998027049
10        118.060553482731        113.551401403886              108.656854    -0.00938247481344955     -0.0416445199579857       0.190985809008614
11        115.112863550773        118.421345651893              108.656854      0.0375736795456295     0.00565180662061506       0.080541611622395
12        118.055660110655        118.424300814179              108.656854    -0.00918637156190613      0.0219845493336643       0.195610798391239
13        113.727311260236        113.562444587898              108.656854    -0.00648682851630857     -0.0403331244186245       0.179857412531485
14        113.722448808114        118.404554762274              108.656854    -0.00717104770739645      0.0226149178478357       0.184538054211232
15        119.450968226168        113.568192293572              108.656854    -0.00102859474353115     -0.0197755109221907      0.0408757680268634
16        119.446105771496         118.41030247058              108.656854     6.4981199073987e-05     0.00421057618261326       0.043461065403168
17        113.026795838139         117.19431994364              108.656854     -0.0200245488534931     -0.0116727331371342      0.0641304202078156
18         113.02922905874        114.771279815063              108.656854     -0.0210240507005753      0.0210993107653431      0.0673572288414123
19        120.146621196692        114.778427112272              108.656854     0.00174109125217695     0.00456753986141789      0.0118551099285151
20        120.144187975028         117.20146724296              108.656854     0.00170659245606779     0.00446885193794453      0.0110836015448813
21        121.555135022624        114.824435085822              108.656854       0.125737770538015       0.139321949254884      0.0522857215907189
22        121.552791362251        117.158288229576              108.656854       0.123529911133492      -0.039881384590492      0.0465868792889374
23        111.620625673161        114.814458829493              108.656854     -0.0101423033904949       0.113554301118262      0.0466228194416606
24        111.618282013145        117.148311972274              108.656854     -0.0096434529295112    -0.00594897363034336      0.0430200733799492
25        122.186726460739        115.991997078118              108.656854     -0.0365096748290771     -0.0257993554387254      0.0091490172555747
26        110.986690574472        115.980749978664              108.656854     0.00192415947277958     -0.0277856301340642     -0.0316173411308803
27        122.209196045824        118.185922140926              108.656854      -0.113396700267733     -0.0431757880131075       0.200256418193828
28          122.2136022867        113.798121569695              108.656854      -0.119936459960617     -0.0791976153841045       0.189112091697193
29        110.959814750727        118.174625487296              108.656854      0.0573394337200466     -0.0571718765475812      0.0842137338124382
30         110.96422099026         113.78682491673              108.656854      0.0597259913848017     -0.0780172811291542      0.0709419185406408
31        113.199866822243        112.615454800093              108.656854     -0.0144777433402002      0.0249047654882812      0.0006887810908623
32        113.193103500599        119.350483321209              108.656854     -0.0141990755129596      0.0173415165996698    -0.00522790249806043
33        119.980313532952        112.622263734631              108.656854       0.070967841160149      0.0275499860210561      0.0117245156546197
34        119.973550207142        119.357292260389              108.656854       0.068364475323049      0.0128857111041891     0.00598238628636262
35        115.562286572867         112.56896056388              108.656854     0.00797244257655537      0.0158864763410054     0.00549685381188089
36        115.555425108682        119.401722146141              108.656854     0.00751767067155109      0.0116879342761056     0.00139546570452696
37        117.617991924022        112.571024909739              108.656854      0.0179493446302142       0.013465533058173    -0.00747733136704677
38        117.611130457531        119.403786490585              108.656854      0.0170193267452378      0.0137963108926056     -0.0111333948413911
39                     100                     100              105.656854       0.212279216696162       0.213974841848302      -0.975685678787488
40                     100                     100              102.828427       0.431915288251329       0.430419190189645   -0.000374392728181121
41                     100                     100                     100       0.212223223743049       0.213460035733146       0.976322736336967
42                     102                     102              105.656854      -0.344708566567958      -0.347574556451393      -0.277966970563792
43                     102                     102              102.828427     -0.0507178979076887     -0.0482910150100697     0.00068704356523386
44                     102                     102                     100      -0.344619457303392      -0.346517464169942       0.276836152920363
45                     104                     100              105.656854      0.0959443587085409       0.960212882696945      -0.808916440105461
46                     104                     100              102.828427     -0.0638860665751526       0.726570210007017   -0.000316725658611538
47                     104                     100                     100      0.0962335689157767       0.959551097938717       0.809423879154761
48                     106                     102              105.656854      -0.149418742467166      -0.515228273267169      -0.381526125028314
49                     106                     102              102.828427       0.142421113983793      0.0668001784331687     0.00048755980717635
50                     106                     102                     100       -0.15023322604481       -0.51395159864773       0.380784923055719
51                     108                     100              105.656854       0.109610511552247        1.06043247356122      -0.801832263596767
52                     108                     100              102.828427      -0.111561423248613       0.639607016596363    0.000139834533506509
53                     108                     100                     100       0.110582898258727        1.06021614350253       0.801548526372984
54                     110                     102              105.656854      -0.143090423949062       -0.58258271844503       -0.37402828746144
55                     110                     102              102.828427       0.147818942389957       0.135282612277867   -0.000702287387037613
56                     110                     102                     100      -0.145399413739307      -0.582886061923049       0.375260959298872
57                     112                     100              105.656854       0.131386258238279        1.10876771079718      -0.810587874140129
58                     112                     100              102.828427      -0.135212909247973       0.589215459923372     0.00104155709121318
59                     112                     100                     100       0.132640157115882        1.10999490600501       0.808809538994569
60                     114                     102              105.656854      -0.163015963651646      -0.619142529526036      -0.361491409052969
61                     114                     102              102.828427       0.168143983194242       0.175019891713116    -0.00248527706461149
62                     114                     102                     100      -0.164868639893625      -0.622772127559815       0.365606825466611
63                     116                     100              105.656854       0.166086026314011        1.14379995600106      -0.821237566329364
64                     116                     100              102.828427      -0.170379927546165       0.552369431514186      0.0016756731204287
65                     116                     100                     100       0.166312843495704        1.14619875337455       0.818424302567928
66                     118                     102              105.656854      -0.208782237834333      -0.650297978199384      -0.347784258497829
67                     118                     102              102.828427        0.21383290631015       0.207597149968315     -0.0028213878666916
68                     118                     102                     100        -0.2076891302974      -0.654601204208782       0.352439505825861
69                     120                     100              105.656854       0.223015352623336        1.18198520595063      -0.835348910521794
70                     120                     100              102.828427      -0.228475775650987       0.513327083984883     0.00130707611499042
71                     120                     100                     100       0.221933996269301        1.18369146164975       0.833136167571214
72                     122                     102              105.656854      -0.288902891446778      -0.687153437019535      -0.330077719857342
73                     122                     102              102.828427        0.29363132459063       0.243759886369168    -0.00125122707989587
74                     122                     102                     100      -0.286393791697439        -0.6884142925974       0.332202179076067
75                     124                     100              105.656854       0.326539546462488        1.23635228683158      -0.852192252316997
76                     124                     100              102.828427       -0.32313010956357       0.459778964257478    0.000380846977026526
77                     124                     100                     100       0.325384748527235         1.2364810026084       0.851504830476662
78                     126                     102              105.656854      -0.462141122838893      -0.727488428314127       -0.33194984951476
79                     126                     102              102.828427       0.397563035340631       0.281524003381486    0.000251566185786951
80                     126                     102                     100       -0.46087722863768      -0.726421181256124       0.331609906828158
81                     128                     100              105.656854       0.708493931434812        1.34066141709141      -0.754762688748808
82                     128                     100              102.828427      -0.281108553003376       0.396137913446052   -0.000230812644045106
83                     128                     100                     100        0.70802499195853        1.34004188824015       0.755115747083916
84                     130                     102              105.656854       -1.34084438357621      -0.708854032104017      -0.755429423265234
85                     130                     102              102.828427      -0.395648143331351       0.281078179885002    0.000686718560858316
86                     130                     102                     100       -1.34076453708776      -0.707664432485099       0.754316810868199
87                     100                     104              105.656854       0.959248023422279      0.0998884721254615      -0.808472703913053
88                     100                     104              102.828427       0.727520233384518     -0.0671439517795055   -0.000991188165125469
89                     100                     104                     100       0.958670297930773      0.0986958261124595       0.810122957895324
90                     102                     106              105.656854      -0.514087651620182      -0.156739973271697      -0.382651965437207
91                     102                     106              102.828427      0.0655210627953417       0.148019478955777     0.00203306236778388
92                     102                     106                     100      -0.512703111173729      -0.154084761971911       0.379370143194828
93                     104                     104              105.656854       0.247644259695227       0.252897623754731      -0.388519938738676
94                     104                     104              102.828427      -0.180312640253276      -0.184476701194853    -0.00134185006869188
95                     104                     104                     100       0.247546252726126       0.250546443930501        0.39065702115151
96                     106                     106              105.656854      -0.234261087875523      -0.245021769008648      -0.504681904729015
97                     106                     106              102.828427       0.225974988758499        0.23357223688395     0.00276531780457157
98                     106                     106                     100      -0.234485405367658      -0.239317715959395       0.500295219033794
99                     108                     104              105.656854       0.173625830841056        0.33941669740922      -0.374985370431498
100                     108                     104              102.828427      -0.177410531134743      -0.269294017383415   -0.000604737932125901
101                     108                     104                     100       0.176152426362929       0.337034107448904        0.37585676701371
102                     110                     106              105.656854      -0.182252051985263      -0.295495828882392        -0.4910357632773
103                     110                     106              102.828427       0.192094698759648       0.286799213686454   -0.000144709622516852
104                     110                     106                     100      -0.190686729649064      -0.292316643430641       0.491321144898408
105                     112                     104              105.656854       0.166026576139668        0.38065092826795      -0.390455979375554
106                     112                     104              102.828427      -0.173416801903301      -0.315172292810946     0.00257262338755089
107                     112                     104                     100       0.171251694315368       0.383741010197664        0.38616930070697
108                     114                     106              105.656854      -0.184915644446474      -0.309059116391264      -0.467618150207757
109                     114                     106              102.828427       0.195546440275054       0.312374066835954    -0.00791488567233736
110                     114                     106                     100      -0.194063238108402      -0.322513212923232       0.481217539714054
111                     116                     104              105.656854       0.196464900964409       0.404747538779081      -0.406486569446303
112                     116                     104              102.828427      -0.202247977352627      -0.343824248010032     0.00538500265547409
113                     116                     104                     100       0.197514086118137       0.413732511435366       0.397649573072496
114                     118                     106              105.656854      -0.238885133168458      -0.326777002034672      -0.449871760253544
115                     118                     106              102.828427       0.242052181178401       0.333173731429688    -0.00953911812604571
116                     118                     106                     100      -0.233416951780365      -0.343867255631639       0.466234439318556
117                     120                     104              105.656854       0.260352389313785       0.434063338750928      -0.422222806805123
118                     120                     104              102.828427      -0.264754833645589      -0.371814564322756      0.0037091427938664
119                     120                     104                     100       0.255581198037405       0.439485579308382       0.416094242071065
120                     122                     106              105.656854      -0.320515844655561      -0.360054492964815      -0.437021343009597
121                     122                     106              102.828427       0.320848482704757       0.356281428663915    -0.00228590368134869
122                     122                     106                     100      -0.309811879341982      -0.361022765397659        0.44093221246821
123                     124                     104              105.656854       0.369198009823457       0.463078903965555      -0.438841120059377
124                     124                     104              102.828427      -0.363195581163823      -0.397358874883823    0.000100579590517196
125                     124                     104                     100       0.365537138940525       0.461652341553616       0.438564814421989
126                     126                     106              105.656854      -0.467651737830765       -0.36951037904874      -0.441631171751247
127                     126                     106              102.828427       0.402118428702496       0.361512004794594     0.00250401374323762
128                     126                     106                     100      -0.465706160490971      -0.363271179181993       0.437638941623534
129                     128                     104              105.656854       0.728560859756037       0.462571452766112      -0.330624416952352
130                     128                     104              102.828427      -0.283088730255943      -0.397139364593413    -0.00130538897139952
131                     128                     104                     100       0.728161380238354       0.459932199329716       0.332673922139758
132                     130                     106              105.656854       -1.23687739150107      -0.328941230432398      -0.853823230408967
133                     130                     106              102.828427      -0.458457625574471       0.324219944299364     0.00233120109247858
134                     130                     106                     100        -1.2381916881402      -0.325499543804087       0.850096983908582
135                     100                     108              105.656854        1.06297122817259       0.116213422877504      -0.800158436046959
136                     100                     108              102.828427       0.638121031012409      -0.116675398484025    -0.00223947063159172
137                     100                     108                     100         1.0607865680361       0.114140495591249       0.803816127099962
138                     102                     110              105.656854      -0.589599281212871       -0.15466461705743      -0.378428589377854
139                     102                     110              102.828427       0.138873852645659       0.155901572683889     0.00475507301078885
140                     102                     110                     100      -0.584082645856274       -0.15040174666346       0.370800092208517
141                     104                     108              105.656854       0.338849588075051       0.188571642229885       -0.37157906135166
142                     104                     108              102.828427      -0.267678355058664      -0.187423374303177    -0.00451196806259524
143                     104                     108                     100       0.335201436177688       0.182147698225665       0.378816358646904
144                     106                     110              105.656854      -0.299663109110147      -0.215866896830475      -0.504061582278653
145                     106                     110              102.828427       0.284834851963911       0.209890286837389      0.0105302293551039
146                     106                     110                     100      -0.289389603429362      -0.199462635311711       0.485225727583832
147                     108                     108              105.656854       0.225395427102032       0.251173257015411      -0.358446737062251
148                     108                     108              102.828427      -0.230436850829465      -0.244978574174938    -0.00561708129655674
149                     108                     108                     100       0.228567851595007       0.236241587031208       0.368714963337673
150                     110                     110              105.656854       -0.19318317976816       -0.26504283026241      -0.497889034036631
151                     110                     110              102.828427       0.218533408347411       0.245341334527347      0.0082062054802914
152                     110                     110                     100      -0.222178947968948      -0.233299337262375       0.473652039956039
153                     112                     108              105.656854       0.174612776575785       0.263694354660285      -0.389326865692114
154                     112                     108              102.828427      -0.197231339947318      -0.271725717249979     0.00565246274307273
155                     112                     108                     100       0.200611571711447       0.268072151723112       0.379164437731343
156                     114                     110              105.656854      -0.165028496158155      -0.193223553392352      -0.392851426315507
157                     114                     110              102.828427       0.204491365721949       0.248584454124622     -0.0233341465375307
158                     114                     110                     100      -0.211534875347119      -0.249879292974896       0.468637643431116
159                     116                     108              105.656854       0.213356146834444       0.250262613273389      -0.425538178225246
160                     116                     108              102.828427      -0.222599393754332      -0.281813477970835      0.0191223944326847
161                     116                     108                     100       0.218599032216825       0.285998896268175       0.388838353486776
162                     118                     110              105.656854      -0.272721686560973      -0.189135331322521      -0.361604899012049
163                     118                     110              102.828427       0.262006147004483       0.255693318099799     -0.0300850909963864
164                     118                     110                     100      -0.247596464566677      -0.259610996916333        0.45388157399329
165                     120                     108              105.656854       0.298231616861083       0.282594898275156      -0.432517278034933
166                     120                     108              102.828427      -0.289485406048497      -0.301260335701277      0.0110080122814087
167                     120                     108                     100       0.273439102833175        0.29993639599435       0.411467627593106
168                     122                     110              105.656854      -0.370135219347775      -0.278691317584904      -0.423116401163594
169                     122                     110              102.828427       0.336666711712145       0.274927135201686    0.000636181531027254
170                     122                     110                     100       -0.31573721336588      -0.265090485461213       0.420646269143084
171                     124                     108              105.656854       0.379859761790281       0.319681043474637      -0.431575407688174
172                     124                     108              102.828427      -0.370340736790876      -0.315336850368373     -0.0040252814967843
173                     124                     108                     100       0.369797972170517       0.304935730467684       0.439724214936959
174                     126                     110              105.656854      -0.439835365523644       -0.27872507602637       -0.43818849463382
175                     126                     110              102.828427       0.382643950654405       0.268617886012719      0.0120678646734576
176                     126                     110                     100      -0.448040522656069      -0.255206882834596       0.414175789705301
177                     128                     108              105.656854       0.688945035944526        0.29513767204574      -0.325657196715413
178                     128                     108              102.828427      -0.247516401825124       -0.29576078481667    -0.00525115581583124
179                     128                     108                     100       0.692326058799565       0.286388770666918       0.334201965435666
180                     130                     110              105.656854       -1.17894425763542      -0.229432875429545      -0.840075733766313
181                     130                     110              102.828427       -0.51266523449119        0.23172915470718     0.00611778434567711
182                     130                     110                     100       -1.18600457310122      -0.223117155494097       0.830210692251904
183                     100                     112              105.656854        1.11777742373008       0.137605657790805      -0.806944039002014
184                     100                     112              102.828427       0.583503598350804      -0.139825574383713    -0.00387532313092204
185                     100                     112                     100        1.11289843135062       0.135677189396859        0.81320874129629
186                     102                     114              105.656854      -0.637594523040843      -0.169871983193368      -0.369998417894575
187                     102                     114              102.828427       0.185026728348523       0.172784805194685     0.00750420913428127
188                     102                     114                     100      -0.626972720741603      -0.167624628790107       0.357927146527797
189                     104                     112              105.656854       0.400064320964697       0.185462523224061      -0.377350885621869
190                     104                     112              102.828427      -0.322854092461174      -0.185062740018594     -0.0103754380627803
191                     104                     112                     100       0.385617038292577       0.177471755041662       0.394719186943958
192                     106                     114              105.656854      -0.355178824885415      -0.207942094341267      -0.508071284940293
193                     106                     114              102.828427       0.324480965478209        0.20768601990974      0.0208109751920954
194                     106                     114                     100      -0.323956955484271      -0.199722722771115       0.466595732946336
195                     108                     112              105.656854       0.290366147001082       0.248883048885348      -0.323869475125777
196                     108                     112              102.828427      -0.266967726861754      -0.223737707567216     -0.0216737514784585
197                     108                     112                     100       0.262793955605067       0.211352736624877       0.390227572455707
198                     110                     114              105.656854      -0.206718151052989      -0.200995307199977       -0.67344541768435
199                     110                     114              102.828427       0.229949880600593       0.227550331920555      0.0229859225943183
200                     110                     114                     100      -0.240625044174606      -0.220522826446851        0.45381780061653
201                     112                     112              105.656854      0.0908147671118023         0.2507006285172      -0.382017018000494