ITEM: TIMESTEP
0
ITEM: NUMBER OF ATOMS
422
ITEM: BOX BOUNDS ff ff ff
0.0000000000000000e+00 2.3200000000000000e+02
0.0000000000000000e+00 2.3200000000000000e+02
0.0000000000000000e+00 2.3200000000000000e+02
ITEM: ATOMS id xu yu zu fx fy fz
1        113.129572388971         115.96716101081        108.640494195133        3.53890987815031        2.82374263083282      -0.355607260318463
2        118.847692018458        116.009433420022        108.677061178387       -3.97240876535642       -2.90110196074453      0.0851856339996367
3          117.4217534889        116.007203607748        108.676262494983       -4.16180327605024       -3.08983362287843       0.312996086415713
4        114.547996963362        115.961876867349        108.633778924413        1.79124377812623         1.2696865837347      -0.294865479966012
5        116.694695769422        114.743345451817        108.650474601653       -1.98093243370483      -0.497116015380041      -0.111187699263207
6        115.242095182314        114.715560800159        108.624122191447        7.17719723612194        1.64718607812928      -0.413665956610658
7        115.247361405334        117.198041745694        108.631873540307        4.44559209638378        3.87363954622362      0.0565130664761659
8        116.702288519477        117.228152924638        108.660552478055        -1.0121804265469        3.96985210682765     -0.0413594190377468
9        114.484301567998        113.514990888416        108.623398647241         7.9389418626009       -6.10893511940373      -0.267739842488224
10        117.420657219721        113.511505140876         108.61695773699      -0.978564110143944       -2.12216997093938      -0.486366069397951
11        114.560070645775        118.468552746896        108.704061095003       0.195431110032948        1.13826203411484       0.160405485762807
12          117.4981941528        118.466834856323        108.699388042144       -10.0865200752042        3.07906863335687       0.421896252311156
13        113.170232206854        113.605365534515        108.699774946618       -12.0232690310419        -15.345594773459       0.447977502543549
14        113.092929683352        118.375035637513        108.627334875239        2.48764730630112        13.8669724740623     -0.0969432899173155
15        118.845130478339        113.562354545743        108.651016252171        4.98070923649909       -6.13853643512067       -0.33444435342964
16        118.892501285422        118.456697984506        108.703249513926        1.62011692648305        3.24858778757791       0.341775610071152
17         112.46172601597        117.229250121471        108.691784177831       -3.89372070641305       -3.14021300949629       0.266546266283371
18        112.401916925606         114.74396768193        108.629541866867      -0.640544013536408       0.700880595301974      -0.169766955518997
19        119.524531170879        114.756337086459        108.634763974187        4.09633165742624        1.40835023970783      -0.183860973524922
20        119.518797461789         117.17607672972        108.631463486761        6.90450497549642        4.83585726288851      -0.158952552681651
21        120.957091109952        114.826391173151        108.658810087328        8.29112990188367       -7.45562315539364      -0.127348087464157
22        120.982188870443        117.187685737768        108.686251508192        2.96065228511166        1.81265921306559       0.330948744390052
23        111.052905800528        114.846738956859        108.689134127367       -17.2955334051079       -17.2991657012288      -0.307080157045658
24        111.049562102059        117.179592061187        108.688134088914       -11.4577042612106        8.21339251625845       0.320352984838534
25          121.6054526134        116.010723230779        108.675580152661        3.23061196542968       -3.12563236125212       0.247022689600343
26        110.413461548589        116.007520952782        108.683624974118       -4.70086547376641      -0.465189377321588       0.148680974490624
27        121.570681796242        118.147407891344        108.618339750418        8.78840960310143        12.8193811529861      -0.566272779934027
28        121.607640206354        113.792159489349        108.650891919654        4.62828743422999       -4.81727894294843    -0.00152501961252748
29        110.393760710964        118.208571447533        108.690799960237       -4.97427835126068        5.42672288490587      0.0215652349678285
30        110.315843078511        113.738447004981        108.608476088251       0.320605334897047        2.68526180103003       0.372263266643922
31         112.56256352215        112.578151500001        108.619550699908       -1.12961379888454       -1.61168862862498       0.213332587705073
32         112.63957902527         119.39695884588         108.70332952467        -2.6176571159429        3.53204498604868     -0.0623836756599744
33        119.423148248396        112.665098450075        108.699688715444        2.45492920005303       -6.43869628709002       0.280333954164598
34        119.349716259205        119.333458312451        108.633020052062        6.88632723425276         8.4797344872369      -0.412005545381778
35        114.993270932731        112.599944923744        108.687838359864        3.79817688358446       -7.29273354794198       0.150810076498587
36        114.921948678903        119.368245716362        108.623377570221        4.96913311320859        8.18822069555694      -0.316293060433802
37        117.064363369033        112.617396354751        108.703225445011       -7.13951173733013       -10.2326441612479        0.61019958939807
38        117.021569912043        119.414225945097        108.667293454512       -3.43978203787332        5.06264936062457     -0.0811378288744718
39                     100                     100              105.656854                       0                       0                       0
40                     100                     100              102.828427                       0                       0                       0
41                     100                     100                     100                       0                       0                       0
42                     102                     102              105.656854                       0                       0                       0
43                     102                     102              102.828427                       0                       0                       0
44                     102                     102                     100                       0                       0                       0
45                     104                     100              105.656854                       0                       0                       0
46                     104                     100              102.828427                       0                       0                       0
47                     104                     100                     100                       0                       0                       0
48                     106                     102              105.656854                       0                       0                       0
49                     106                     102              102.828427                       0                       0                       0
50                     106                     102                     100                       0                       0                       0
51                     108                     100              105.656854                       0                       0                       0
52                     108                     100              102.828427                       0                       0                       0
53                     108                     100                     100                       0                       0                       0
54                     110                     102              105.656854                       0                       0                       0
55                     110                     102              102.828427                       0                       0                       0
56                     110                     102                     100                       0                       0                       0
57                     112                     100              105.656854                       0                       0                       0
58                     112                     100              102.828427                       0                       0                       0
59                     112                     100                     100                       0                       0                       0
60                     114                     102              105.656854                       0                       0                       0
61                     114                     102              102.828427                       0                       0                       0
62                     114                     102                     100                       0                       0                       0
63                     116                     100              105.656854                       0                       0                       0
64                     116                     100              102.828427                       0                       0                       0
65                     116                     100                     100                       0                       0                       0
66                     118                     102              105.656854                       0                       0                       0
67                     118                     102              102.828427                       0                       0                       0
68                     118                     102                     100                       0                       0                       0
69                     120                     100              105.656854                       0                       0                       0
70                     120                     100              102.828427                       0                       0                       0
71                     120                     100                     100                       0                       0                       0
72                     122                     102              105.656854                       0                       0                       0
73                     122                     102              102.828427                       0                       0                       0
74                     122                     102                     100                       0                       0                       0
75                     124                     100              105.656854                       0                       0                       0
76                     124                     100              102.828427                       0                       0                       0
77                     124                     100                     100                       0                       0                       0
78                     126                     102              105.656854                       0                       0                       0
79                     126                     102              102.828427                       0                       0                       0
80                     126                     102                     100                       0                       0                       0
81                     128                     100              105.656854                       0                       0                       0
82                     128                     100              102.828427                       0                       0                       0
83                     128                     100                     100                       0                       0                       0
84                     130                     102              105.656854                       0                       0                       0
85                     130                     102              102.828427                       0                       0                       0
86                     130                     102                     100                       0                       0                       0
87                     100                     104              105.656854                       0                       0                       0
88                     100                     104              102.828427                       0                       0                       0
89                     100                     104                     100                       0                       0                       0
90                     102                     106              105.656854                       0                       0                       0
91                     102                     106              102.828427                       0                       0                       0
92                     102                     106                     100                       0                       0                       0
93                     104                     104              105.656854                       0                       0                       0
94                     104                     104              102.828427                       0                       0                       0
95                     104                     104                     100                       0                       0                       0
96                     106                     106              105.656854                       0                       0                       0
97                     106                     106              102.828427                       0                       0                       0
98                     106                     106                     100                       0                       0                       0
99                     108                     104              105.656854                       0                       0                       0
100                     108                     104              102.828427                       0                       0                       0
101                     108                     104                     100                       0                       0                       0
102                     110                     106              105.656854                       0                       0                       0
103                     110                     106              102.828427                       0                       0                       0
104                     110                     106                     100                       0                       0                       0
105                     112                     104              105.656854                       0                       0                       0
106                     112                     104              102.828427                       0                       0                       0
107                     112                     104                     100                       0                       0                       0
108                     114                     106              105.656854                       0                       0                       0
109                     114                     106              102.828427                       0                       0                       0
110                     114                     106                     100                       0                       0                       0
111                     116                     104              105.656854                       0                       0                       0
112                     116                     104              102.828427                       0                       0                       0
113                     116                     104                     100                       0                       0                       0
114                     118                     106              105.656854                       0                       0                       0
115                     118                     106              102.828427                       0                       0                       0
116                     118                     106                     100                       0                       0                       0
117                     120                     104              105.656854                       0                       0                       0
118                     120                     104              102.828427                       0                       0                       0
119                     120                     104                     100                       0                       0                       0
120                     122                     106              105.656854                       0                       0                       0
121                     122                     106              102.828427                       0                       0                       0
122                     122                     106                     100                       0                       0                       0
123                     124                     104              105.656854                       0                       0                       0
124                     124                     104              102.828427                       0                       0                       0
125                     124                     104                     100                       0                       0                       0
126                     126                     106              105.656854                       0                       0                       0
127                     126                     106              102.828427                       0                       0                       0
128                     126                     106                     100                       0                       0                       0
129                     128                     104              105.656854                       0                       0                       0
130                     128                     104              102.828427                       0                       0                       0
131                     128                     104                     100                       0                       0                       0
132                     130                     106              105.656854                       0                       0                       0
133                     130                     106              102.828427                       0                       0                       0
134                     130                     106                     100                       0                       0                       0
135                     100                     108              105.656854                       0                       0                       0
136                     100                     108              102.828427                       0                       0                       0
137                     100                     108                     100                       0                       0                       0
138                     102                     110              105.656854                       0                       0                       0
139                     102                     110              102.828427                       0                       0                       0
140                     102                     110                     100                       0                       0                       0
141                     104                     108              105.656854                       0                       0                       0
142                     104                     108              102.828427                       0                       0                       0
143                     104                     108                     100                       0                       0                       0
144                     106                     110              105.656854                       0                       0                       0
145                     106                     110              102.828427                       0                       0                       0
146                     106                     110                     100                       0                       0                       0
147                     108                     108              105.656854                       0                       0                       0
148                     108                     108              102.828427                       0                       0                       0
149                     108                     108                     100                       0                       0                       0
150                     110                     110              105.656854                       0                       0                       0
151                     110                     110              102.828427                       0                       0                       0
152                     110                     110                     100                       0                       0                       0
153                     112                     108              105.656854                       0                       0                       0
154                     112                     108              102.828427                       0                       0                       0
155                     112                     108                     100                       0                       0                       0
156                     114                     110              105.656854                       0                       0                       0
157                     114                     110              102.828427                       0                       0                       0
158                     114                     110                     100                       0                       0                       0
159                     116                     108              105.656854                       0                       0                       0
160                     116                     108              102.828427                       0                       0                       0
161                     116                     108                     100                       0                       0                       0
162                     118                     110              105.656854                       0                       0                       0
163                     118                     110              102.828427                       0                       0                       0
164                     118                     110                     100                       0                       0                       0
165                     120                     108              105.656854                       0                       0                       0
166                     120                     108              102.828427                       0                       0                       0
167                     120                     108                     100                       0                       0                       0
168                     122                     110              105.656854                       0                       0                       0
169                     122                     110              102.828427                       0                       0                       0
170                     122                     110                     100                       0                       0                       0
171                     124                     108              105.656854                       0                       0                       0
172                     124                     108              102.828427                       0                       0                       0
173                     124                     108                     100                       0                       0                       0
174                     126                     110              105.656854                       0                       0                       0
175                     126                     110              102.828427                       0                       0                       0
176                     126                     110                     100                       0                       0                       0
177                     128                     108              105.656854                       0                       0                       0
178                     128                     108              102.828427                       0                       0                       0
179                     128                     108                     100                       0                       0                       0
180                     130                     110              105.656854                       0                       0                       0
181                     130                     110              102.828427                       0                       0                       0
182                     130                     110                     100                       0                       0                       0
183                     100                     112              105.656854                       0                       0                       0
184                     100                     112              102.828427                       0                       0                       0
185                     100                     112                     100                       0                       0                       0
186                     102                     114              105.656854                       0                       0                       0
187                     102                     114              102.828427                       0                       0                       0
188                     102                     114                     100                       0                       0                       0
189                     104                     112              105.656854                       0                       0                       0
190                     104                     112              102.828427                       0                       0                       0
191                     104                     112                     100                       0                       0                       0
192                     106                     114              105.656854                       0                       0                       0
193                     106                     114              102.828427                       0                       0                       0
194                     106                     114                     100                       0                       0                       0
195                     108                     112              105.656854                       0                       0                       0
196                     108                     112              102.828427                       0                       0                       0
197                     108                     112                     100                       0                       0                       0
198                     110                     114              105.656854                       0                       0                       0
199                     110                     114              102.828427                       0                       0                       0
200                     110                     114                     100                       0                       0                       0
201                     112                     112              105.656854                       0                       0                       0