ITEM: TIMESTEP
0
ITEM: NUMBER OF ATOMS
422
ITEM: BOX BOUNDS ff ff ff
0.0000000000000000e+00 2.3200000000000000e+02
0.0000000000000000e+00 2.3200000000000000e+02
0.0000000000000000e+00 2.3200000000000000e+02
ITEM: ATOMS id xu yu zu fx fy fz
1        113.156549965416        115.994138587254        108.667471771577        1.48329160488677        1.34900221151189       0.489236010358142
2        118.793968932927         115.95571033449        108.623338092856       0.913867323198807        1.97071422468854       0.254303522888564
3         117.35980891651        115.945259035358        108.614317922593        0.85929569442675       0.580526235217222     0.00778882164644234
4        114.609620381958        116.023500285945        108.695402343009       -4.40156465349856       -4.09452121580725      -0.735611359761212
5        116.661972785005          114.7106224674        108.617751617236        1.51381374346238       0.800706999849641       0.218355404388627
6        115.269986847512        114.743452465357        108.652013856645       -1.75141891383106       -1.59907352320805      -0.321953712075495
7        115.259775219397        117.210455559757         108.64428735437        2.15034634022212        2.95046609753942       0.520659857057883
8         116.65911754926        117.184981954421        108.617381507838        2.45925489312606        1.79139732933544       0.221850809025772
9        114.470250701539        113.500940021957        108.609347780782        4.60398977909672        5.10403830978157         0.8408399084259
10        117.438634693644        113.529482614799        108.634935210913          1.293505532043       0.730822620552294       0.147330684922915
11         114.55190152585         118.46038362697        108.695891975077       -2.36770478361547        -3.3052194594458      -0.361284278032344
12        117.449236370034        118.417877073558        108.650430259379        0.87947162694724      -0.411152868297848       0.141437824655769
13        113.157498819269        113.592632146931        108.687041559033       -5.92499871304463       -5.63458193013153      -0.997649009491616
14        113.161512387643        118.443618341803        108.695917579529      -0.368673525117988      -0.821829039836716     -0.0511849782157152
15        118.861500633108        113.578724700512         108.66738640694       -2.54075246704221       -2.46393773619499      -0.421342811523816
16        118.884345833561        118.448542532645        108.695094062064       -4.33850390338555       -4.63740438863614      -0.549549647735508
17        112.471907085751        117.239431191252        108.701965247612       -1.79959832080427       -2.07763450424885      -0.348579285016096
18        112.423623092313        114.765673848636        108.651248033573        2.71743484559678        2.78686325178744       0.519314886718372
19        119.527367284884        114.759173200464        108.637600088192      -0.459942273088691      -0.735067182939936      -0.220782036374804
20        119.544777336575        117.202056604506        108.657443361546       -1.37023122822379      -0.841130338868785      -0.147702685193334
21        120.908923539431        114.778223602629        108.610642516807        3.80650489758523         4.6730173043795       0.792817035592957
22        120.928331234611        117.133828101936        108.632393872361        1.36641446268133       0.868778103839667       0.174771653350977
23        111.043926346222        114.837759502554        108.680154673061        -1.9552054593289       -2.05316514434753      -0.348996290109811
24        111.044375358317        117.174405317445        108.682947345172       0.752960832729916       0.528115884506433       0.171488828353884
25        121.554846010646        115.960116628024        108.624973549906       -1.51454735240934      -0.308649214170308      -0.396865680069555
26        110.415873408467         116.00993281266        108.686036833996      0.0690005279865762      -0.357503473191985     -0.0370340098068336
27        121.593763008002        118.170489103104        108.641420962178      -0.214273360070891      -0.904649965328924      -0.038356907045289
28        121.642030633704        113.826549916699        108.685282347004       -1.42279461362181       -2.47775480261141      -0.245529100543041
29        110.379623167818        118.194433904387         108.67666241709     -0.0163621930513876      0.0893937012683055      0.0054146777234236
30        110.370195809665        113.792799736134        108.662828819404       0.808200539783772        1.55386346539014       0.142924135328092
31        112.550287317369        112.565875295219        108.607274495126        1.84394344195891        2.87974512729647       0.543022523095683
32        112.555059881958        119.312439702568        108.618810381358       0.445062468162212        1.18012653308398       0.159682742384778
33        119.355052932337        112.597003134016        108.631593399385        0.35172091704069       0.647242457628508       0.171678791393396
34        119.339858517526        119.323600570772        108.623162310383        1.72589796408766        2.47779730192196       0.108745752257385
35           114.988004158        112.594678149013        108.682571585134      -0.818076554647202       -1.38379655797697      -0.260547354396921
36        114.935076156592         119.38137319405         108.63650504791        1.50730942289949        1.99253625481124     -0.0497734790426119
37        117.013349900955        112.566382886673        108.652211976934      -0.105493695509081      -0.692060896386625     -0.0440922537727677
38        117.012274752652        119.404930785706        108.657998295121      -0.181144847631578       -0.15602117276002     -0.0548289913621903
39                     100                     100              105.656854                       0                       0                       0
40                     100                     100              102.828427                       0                       0                       0
41                     100                     100                     100                       0                       0                       0
42                     102                     102              105.656854                       0                       0                       0
43                     102                     102              102.828427                       0                       0                       0
44                     102                     102                     100                       0                       0                       0
45                     104                     100              105.656854                       0                       0                       0
46                     104                     100              102.828427                       0                       0                       0
47                     104                     100                     100                       0                       0                       0
48                     106                     102              105.656854                       0                       0                       0
49                     106                     102              102.828427                       0                       0                       0
50                     106                     102                     100                       0                       0                       0
51                     108                     100              105.656854                       0                       0                       0
52                     108                     100              102.828427                       0                       0                       0
53                     108                     100                     100                       0                       0                       0
54                     110                     102              105.656854                       0                       0                       0
55                     110                     102              102.828427                       0                       0                       0
56                     110                     102                     100                       0                       0                       0
57                     112                     100              105.656854                       0                       0                       0
58                     112                     100              102.828427                       0                       0                       0
59                     112                     100                     100                       0                       0                       0
60                     114                     102              105.656854                       0                       0                       0
61                     114                     102              102.828427                       0                       0                       0
62                     114                     102                     100                       0                       0                       0
63                     116                     100              105.656854                       0                       0                       0
64                     116                     100              102.828427                       0                       0                       0
65                     116                     100                     100                       0                       0                       0
66                     118                     102              105.656854                       0                       0                       0
67                     118                     102              102.828427                       0                       0                       0
68                     118                     102                     100                       0                       0                       0
69                     120                     100              105.656854                       0                       0                       0
70                     120                     100              102.828427                       0                       0                       0
71                     120                     100                     100                       0                       0                       0
72                     122                     102              105.656854                       0                       0                       0
73                     122                     102              102.828427                       0                       0                       0
74                     122                     102                     100                       0                       0                       0
75                     124                     100              105.656854                       0                       0                       0
76                     124                     100              102.828427                       0                       0                       0
77                     124                     100                     100                       0                       0                       0
78                     126                     102              105.656854                       0                       0                       0
79                     126                     102              102.828427                       0                       0                       0
80                     126                     102                     100                       0                       0                       0
81                     128                     100              105.656854                       0                       0                       0
82                     128                     100              102.828427                       0                       0                       0
83                     128                     100                     100                       0                       0                       0
84                     130                     102              105.656854                       0                       0                       0
85                     130                     102              102.828427                       0                       0                       0
86                     130                     102                     100                       0                       0                       0
87                     100                     104              105.656854                       0                       0                       0
88                     100                     104              102.828427                       0                       0                       0
89                     100                     104                     100                       0                       0                       0
90                     102                     106              105.656854                       0                       0                       0
91                     102                     106              102.828427                       0                       0                       0
92                     102                     106                     100                       0                       0                       0
93                     104                     104              105.656854                       0                       0                       0
94                     104                     104              102.828427                       0                       0                       0
95                     104                     104                     100                       0                       0                       0
96                     106                     106              105.656854                       0                       0                       0
97                     106                     106              102.828427                       0                       0                       0
98                     106                     106                     100                       0                       0                       0
99                     108                     104              105.656854                       0                       0                       0
100                     108                     104              102.828427                       0                       0                       0
101                     108                     104                     100                       0                       0                       0
102                     110                     106              105.656854                       0                       0                       0
103                     110                     106              102.828427                       0                       0                       0
104                     110                     106                     100                       0                       0                       0
105                     112                     104              105.656854                       0                       0                       0
106                     112                     104              102.828427                       0                       0                       0
107                     112                     104                     100                       0                       0                       0
108                     114                     106              105.656854                       0                       0                       0
109                     114                     106              102.828427                       0                       0                       0
110                     114                     106                     100                       0                       0                       0
111                     116                     104              105.656854                       0                       0                       0
112                     116                     104              102.828427                       0                       0                       0
113                     116                     104                     100                       0                       0                       0
114                     118                     106              105.656854                       0                       0                       0
115                     118                     106              102.828427                       0                       0                       0
116                     118                     106                     100                       0                       0                       0
117                     120                     104              105.656854                       0                       0                       0
118                     120                     104              102.828427                       0                       0                       0
119                     120                     104                     100                       0                       0                       0
120                     122                     106              105.656854                       0                       0                       0
121                     122                     106              102.828427                       0                       0                       0
122                     122                     106                     100                       0                       0                       0
123                     124                     104              105.656854                       0                       0                       0
124                     124                     104              102.828427                       0                       0                       0
125                     124                     104                     100                       0                       0                       0
126                     126                     106              105.656854                       0                       0                       0
127                     126                     106              102.828427                       0                       0                       0
128                     126                     106                     100                       0                       0                       0
129                     128                     104              105.656854                       0                       0                       0
130                     128                     104              102.828427                       0                       0                       0
131                     128                     104                     100                       0                       0                       0
132                     130                     106              105.656854                       0                       0                       0
133                     130                     106              102.828427                       0                       0                       0
134                     130                     106                     100                       0                       0                       0
135                     100                     108              105.656854                       0                       0                       0
136                     100                     108              102.828427                       0                       0                       0
137                     100                     108                     100                       0                       0                       0
138                     102                     110              105.656854                       0                       0                       0
139                     102                     110              102.828427                       0                       0                       0
140                     102                     110                     100                       0                       0                       0
141                     104                     108              105.656854                       0                       0                       0
142                     104                     108              102.828427                       0                       0                       0
143                     104                     108                     100                       0                       0                       0
144                     106                     110              105.656854                       0                       0                       0
145                     106                     110              102.828427                       0                       0                       0
146                     106                     110                     100                       0                       0                       0
147                     108                     108              105.656854                       0                       0                       0
148                     108                     108              102.828427                       0                       0                       0
149                     108                     108                     100                       0                       0                       0
150                     110                     110              105.656854                       0                       0                       0
151                     110                     110              102.828427                       0                       0                       0
152                     110                     110                     100                       0                       0                       0
153                     112                     108              105.656854                       0                       0                       0
154                     112                     108              102.828427                       0                       0                       0
155                     112                     108                     100                       0                       0                       0
156                     114                     110              105.656854                       0                       0                       0
157                     114                     110              102.828427                       0                       0                       0
158                     114                     110                     100                       0                       0                       0
159                     116                     108              105.656854                       0                       0                       0
160                     116                     108              102.828427                       0                       0                       0
161                     116                     108                     100                       0                       0                       0
162                     118                     110              105.656854                       0                       0                       0
163                     118                     110              102.828427                       0                       0                       0
164                     118                     110                     100                       0                       0                       0
165                     120                     108              105.656854                       0                       0                       0
166                     120                     108              102.828427                       0                       0                       0
167                     120                     108                     100                       0                       0                       0
168                     122                     110              105.656854                       0                       0                       0
169                     122                     110              102.828427                       0                       0                       0
170                     122                     110                     100                       0                       0                       0
171                     124                     108              105.656854                       0                       0                       0
172                     124                     108              102.828427                       0                       0                       0
173                     124                     108                     100                       0                       0                       0
174                     126                     110              105.656854                       0                       0                       0
175                     126                     110              102.828427                       0                       0                       0
176                     126                     110                     100                       0                       0                       0
177                     128                     108              105.656854                       0                       0                       0
178                     128                     108              102.828427                       0                       0                       0
179                     128                     108                     100                       0                       0                       0
180                     130                     110              105.656854                       0                       0                       0
181                     130                     110              102.828427                       0                       0                       0
182                     130                     110                     100                       0                       0                       0
183                     100                     112              105.656854                       0                       0                       0
184                     100                     112              102.828427                       0                       0                       0
185                     100                     112                     100                       0                       0                       0
186                     102                     114              105.656854                       0                       0                       0
187                     102                     114              102.828427                       0                       0                       0
188                     102                     114                     100                       0                       0                       0
189                     104                     112              105.656854                       0                       0                       0
190                     104                     112              102.828427                       0                       0                       0
191                     104                     112                     100                       0                       0                       0
192                     106                     114              105.656854                       0                       0                       0
193                     106                     114              102.828427                       0                       0                       0
194                     106                     114                     100                       0                       0                       0
195                     108                     112              105.656854                       0                       0                       0
196                     108                     112              102.828427                       0                       0                       0
197                     108                     112                     100                       0                       0                       0
198                     110                     114              105.656854                       0                       0                       0
199                     110                     114              102.828427                       0                       0                       0
200                     110                     114                     100                       0                       0                       0
201                     112                     112              105.656854                       0                       0                       0