ITEM: TIMESTEP
0
ITEM: NUMBER OF ATOMS
422
ITEM: BOX BOUNDS ff ff ff
0.0000000000000000e+00 2.3200000000000000e+02
0.0000000000000000e+00 2.3200000000000000e+02
0.0000000000000000e+00 2.3200000000000000e+02
ITEM: ATOMS id xu yu zu fx fy fz
1        112.445932193839        115.983520815677              108.656854   -0.000650738849780508     -0.0011301162659814    -0.00448101132890874
2        118.127484840071        115.989226241634              108.656854     -0.0038779406768322   -0.000738426343273604      0.0188134395225836
3        116.702344993917        115.987795112765              108.656854    0.000581208155526508     0.00307346971134237     0.00319179949524189
4        113.871072038949        115.984951942936              108.656854     0.00189252214080765     0.00366373559979949      0.0186775527431581
5        116.001075167769        114.749724850164              108.656854     0.00346546831069697     0.00808719090614712      0.0115506760172546
6        114.574826990867        114.748292608712              108.656854      0.0272837484751141      0.0352661483642605        0.10698440921035
7        114.572341865028        117.223022205388              108.656854       0.026526238293872       -0.02784289485183       0.103548220332587
8        115.998590041422        117.224454446583              108.656854     0.00349193120805641   -0.000348997887947983      0.0107884507316719
9        113.817756920757        113.548446241175              108.656854     -0.0184612549702074     -0.0411823233488957       0.185224725733694
10        116.760553482731        113.551401403886              108.656854     -0.0516710012598267     -0.0228010006182739      0.0619394774822168
11        113.812863550773        118.421345651893              108.656854     -0.0190563349929403      0.0207352066212276        0.19020124153232
12        116.755660110655        118.424300814179              108.656854     -0.0515691805625941     0.00359592094136789      0.0642401868817618
13        112.427311260236        113.562444587898              108.656854    -0.00932340793736869     -0.0183191711554216      0.0285129917854621
14        112.422448808114        118.404554762274              108.656854     -0.0095921979396896     0.00195501093482174      0.0305717285622371
15        118.150968226168        113.568192293572              108.656854     -0.0178983363120565     -0.0410393439207698       0.188487250302177
16        118.146105771496         118.41030247058              108.656854     -0.0176969869424278      0.0243275280014095       0.192509538753443
17        111.726795838139         117.19431994364              108.656854      0.0119936201964251      0.0038715873089204      0.0155552334471103
18         111.72922905874        114.771279815063              108.656854      0.0121848777907803     0.00557577740613321      0.0165721773659082
19        118.846621196692        114.778427112272              108.656854      0.0309242478077484      0.0245441516209061      0.0774175544218485
20        118.844187975028         117.20146724296              108.656854      0.0301899193820766     -0.0155173576362021      0.0754595348487754
21        120.255135022624        114.824435085822              108.656854       0.122636813019287       0.111035743043368      0.0265785002734544
22        120.252791362251        117.158288229576              108.656854       0.120624021466895      -0.008686465538358      0.0226345458908696
23        110.320625673161        114.814458829493              108.656854     -0.0022933328989882         0.1428558973588      0.0834973805005373
24        110.318282013145        117.148311972274              108.656854    -0.00128780508750931     -0.0367161908996149      0.0758920531440741
25        120.886726460739        115.991997078118              108.656854     -0.0651167083567978     -0.0267220462929016     -0.0244633267786221
26        109.686690574472        115.980749978664              108.656854     -0.0355050663742698     -0.0272126900521678    -0.00986364067178461
27        120.909196045824        118.185922140926              108.656854      -0.197106027565284     -0.0489050463198367      0.0934096098995049
28          120.9136022867        113.798121569695              108.656854      -0.202993034147657     -0.0770706184458744      0.0829087178450217
29        109.659814750727        118.174625487296              108.656854      -0.049427347877383     -0.0545322982456434       0.154679650944484
30         109.66422099026         113.78682491673              108.656854     -0.0452478191584855     -0.0793105071405059       0.142176060785249
31        111.899866822243        112.615454800093              108.656854     -0.0303317413314348      0.0266531319056501      0.0186056977440992
32        111.893103500599        119.350483321209              108.656854     -0.0296360307739479       0.015301093172674      0.0122987225856071
33        118.680313532952        112.622263734631              108.656854      0.0576372961122848      0.0252386725769419      -0.005978043873258
34        118.673550207142        119.357292260389              108.656854      0.0558623347508054      0.0161192401486711     -0.0117581332304847
35        114.262286572867         112.56896056388              108.656854      0.0104185095265476      0.0131066758624955    -0.00631117938273792
36        114.255425108682        119.401722146141              108.656854      0.0104651789451493      0.0146662495066351      -0.010093980792856
37        116.317991924022        112.571024909739              108.656854      0.0171316247855405      0.0160964783010172     0.00595553767551477
38        116.311130457531        119.403786490585              108.656854      0.0163918810432666      0.0113758461419638     0.00199906504446588
39                     100                     100              105.656854       0.212020402769931       0.214040244730374      -0.975674668723186
40                     100                     100              102.828427       0.432144840728845       0.430390872068649   -0.000381627997507969
41                     100                     100                     100       0.212036087473029       0.213454283286511       0.976314650523097
42                     102                     102              105.656854      -0.344195796107929       -0.34768806115561      -0.277989401578758
43                     102                     102              102.828427     -0.0511511407335577     -0.0482650259063939    0.000691460541942054
44                     102                     102                     100      -0.344292591140005      -0.346479037875682        0.27687081878984
45                     104                     100              105.656854      0.0955000141748841       0.959993255446094      -0.808967811097986
46                     104                     100              102.828427     -0.0635336349738242       0.726776303284917   -0.000225185314662738
47                     104                     100                     100      0.0959872384403156       0.959375052716185       0.809310425400716
48                     106                     102              105.656854      -0.148550512969269      -0.514630863396655      -0.381365076660602
49                     106                     102              102.828427       0.141802695058167      0.0663003495767184    0.000231665319265325
50                     106                     102                     100      -0.149861013063144      -0.513582331470977       0.381059061840736
51                     108                     100              105.656854       0.109321775489699        1.05964154809899      -0.802009428101625
52                     108                     100              102.828427       -0.11137482435021        0.64021450236614    0.000401824363651919
53                     108                     100                     100       0.110493336669913        1.05980277292278       0.801286964782014
54                     110                     102              105.656854      -0.142960829074724      -0.580838830792231      -0.373568827801193
55                     110                     102              102.828427       0.147817672030137       0.134099186743972     -0.0013006525538462
56                     110                     102                     100      -0.145482232499857      -0.582192164896203       0.375773416254276
57                     112                     100              105.656854       0.131916973099735        1.10783530027186      -0.810795964191507
58                     112                     100              102.828427      -0.135655484604481       0.589881839754298      0.0013283473385213
59                     112                     100                     100       0.132978038587704        1.10958209230667       0.808548512224131
60                     114                     102              105.656854      -0.164659801954697      -0.618038913896572      -0.361200953102388
61                     114                     102              102.828427       0.169362185616899       0.174312513686115    -0.00284324986695637
62                     114                     102                     100      -0.165673525092807      -0.622387861247221       0.365891293923804
63                     116                     100              105.656854        0.16717466051397         1.1438171006282      -0.821233855266127
64                     116                     100              102.828427      -0.171228972640191       0.552357401310234     0.00167068002481475
65                     116                     100                     100        0.16690774553121        1.14620603430306       0.818428702320882
66                     118                     102              105.656854      -0.210387152699316      -0.651454680567449      -0.348088253587367
67                     118                     102              102.828427       0.215025118012064       0.208339068237686    -0.00244662111233635
68                     118                     102                     100      -0.208479264457812      -0.655004729951897        0.35214150385764
69                     120                     100              105.656854       0.223519149393399        1.18292767035089      -0.835138741834193
70                     120                     100              102.828427      -0.228898547335459       0.512652617918664     0.00101708028963775
71                     120                     100                     100       0.222259161733557        1.18411005862129       0.833400537001792
72                     122                     102              105.656854      -0.288729313081586      -0.688874014398841      -0.330530904484359
73                     122                     102              102.828427       0.293598031405888       0.244931530048721   -0.000659098231992194
74                     122                     102                     100      -0.286456240342013      -0.689104195219035       0.331693022505513
75                     124                     100              105.656854       0.326238108920019        1.23712626490427      -0.852018860446333
76                     124                     100              102.828427      -0.322932639109549       0.459182558886343    0.000123639220126364
77                     124                     100                     100       0.325286816612918        1.23688850643669       0.851762628989278
78                     126                     102              105.656854      -0.461278051172008      -0.728053979979114      -0.332102759649059
79                     126                     102              102.828427       0.396944832082773       0.282002238928946    0.000496851446995078
80                     126                     102                     100      -0.460502157742648      -0.726778279963704       0.331344543641485
81                     128                     100              105.656854       0.708054182766657        1.34086867104166       -0.75471396082004
82                     128                     100              102.828427      -0.280758550672809       0.395941448891455   -0.000318382576824478
83                     128                     100                     100       0.707779139777328        1.34021143595368       0.755225252906235
84                     130                     102              105.656854       -1.34034494118211      -0.708733701979053      -0.755405433035555
85                     130                     102              102.828427      -0.396071967955311       0.281045382443758    0.000679241944985924
86                     130                     102                     100       -1.34044296940451      -0.707697205371376       0.754285935114514
87                     100                     104              105.656854       0.958926845583303       0.100339604530193      -0.808347146629068
88                     100                     104              102.828427       0.727848565961081      -0.067414905743347    -0.00113494997061916
89                     100                     104                     100       0.958376215918965      0.0988114865797717       0.810210127918404
90                     102                     106              105.656854      -0.513452266100924      -0.157779162728889       -0.38302273207276
91                     102                     106              102.828427      0.0648479241761856       0.148524839357558     0.00237590257336897
92                     102                     106                     100      -0.512141031034923      -0.154233766370993       0.379227988768248
93                     104                     104              105.656854       0.246505974040048       0.253087879936765      -0.388476007298281
94                     104                     104              102.828427      -0.179430950565252       -0.18444656761844     -0.0013090189754042
95                     104                     104                     100       0.246960103870324       0.250408779021019       0.390528638228206
96                     106                     106              105.656854      -0.231305345696048      -0.245206262574108      -0.504712032359281
97                     106                     106              102.828427       0.224051298483009       0.233228201660486     0.00248367168681775
98                     106                     106                     100      -0.233452966898984      -0.238904915579012        0.50074711519729
99                     108                     104              105.656854       0.171908919053118       0.337600194936217      -0.375574386090117
100                     108                     104              102.828427      -0.176400891957852      -0.268032837074476    0.000168676115038225
101                     108                     104                     100       0.175683850172725       0.336277364777386       0.375187456867375
102                     110                     106              105.656854      -0.179582542988986      -0.289508763324974      -0.488564848338194
103                     110                     106              102.828427       0.191055688455679       0.283752066067386    -0.00250036908480785
104                     110                     106                     100      -0.190469372828341      -0.290934273978365       0.492843614849853
105                     112                     104              105.656854       0.167208999948153       0.377126068574006      -0.391586966593609
106                     112                     104              102.828427      -0.174344738117823      -0.313156436938592     0.00380758775047252
107                     112                     104                     100       0.171906440596469       0.382760822803727       0.385298627603687
108                     114                     106              105.656854      -0.190903097883951      -0.304273604878072      -0.465654111049934
109                     114                     106              102.828427       0.199101549732521       0.310139366547414    -0.00965109561906969
110                     114                     106                     100      -0.195956773799771      -0.321622605951326       0.482208476907229
111                     116                     104              105.656854       0.200222010911653       0.404820728880165      -0.406463570455169
112                     116                     104              102.828427      -0.204750868096011      -0.343865199397729     0.00536062417354089
113                     116                     104                     100       0.198977549211407       0.413751765625118       0.397665987030328
114                     118                     106              105.656854      -0.244676539294601      -0.331804120149222      -0.451933010212236
115                     118                     106              102.828427       0.245501163465897       0.335519090544455    -0.00772020706584577
116                     118                     106                     100      -0.235263299820994      -0.344803203253079       0.465195948055455
117                     120                     104              105.656854       0.261410563635264       0.437604601313275       -0.42108729111261
118                     120                     104              102.828427      -0.265606999552445      -0.373844767267995     0.00246656548021141
119                     120                     104                     100       0.256196460109667       0.440476046982231       0.416972890365628
120                     122                     106              105.656854      -0.317680513031613      -0.365835694438126      -0.439407271049205
121                     122                     106              102.828427       0.319708733187621       0.359255716476904     1.1892077460828e-05
122                     122                     106                     100       -0.30954120892589      -0.362385547506704       0.439432917561055
123                     124                     104              105.656854       0.367468460042014       0.464808408027227      -0.438279615179087
124                     124                     104              102.828427      -0.362168249305244      -0.398573477796133   -0.000644602952137869
125                     124                     104                     100       0.365052594329797       0.462389226421697        0.43921650402662
126                     126                     106              105.656854      -0.464792888817936         -0.369245021209      -0.441570145106462
127                     126                     106              102.828427       0.400233651235057       0.361801956664962     0.00274657291436117
128                     126                     106                     100      -0.464681218708225      -0.363656759052194       0.437215544633304
129                     128                     104              105.656854       0.727456220807035       0.462360363860208      -0.330674340263576
130                     128                     104              102.828427      -0.282226847426756      -0.397151130301405    -0.00132799223092875
131                     128                     104                     100       0.727583470760118       0.460057233464962       0.332791944131231
132                     130                     106              105.656854       -1.23627711467146      -0.327918556290493      -0.853459940729704
133                     130                     106              102.828427      -0.459103129406649       0.323714785213084     0.00199018280405908
134                     130                     106                     100       -1.23764586413452      -0.325344832435649       0.850243766223626
135                     100                     108              105.656854        1.06318399765163       0.117436897799938      -0.799596773139421
136                     100                     108              102.828427       0.638281841496972      -0.117372484383114    -0.00284923561374774
137                     100                     108                     100        1.06045898562337       0.114440696803395       0.804194392302382
138                     102                     110              105.656854      -0.590640732850485      -0.157358255054759      -0.380295531489052
139                     102                     110              102.828427        0.13851274758695       0.157089455885926     0.00630167629908474
140                     102                     110                     100       -0.58337012127518      -0.150770005896801       0.370119229281789
141                     104                     108              105.656854       0.337423159415892       0.191307204212777      -0.370227729003618
142                     104                     108              102.828427      -0.266100696344647      -0.188317975878552    -0.00535368376694686
143                     104                     108                     100       0.334076825841283       0.182255788898811       0.378962340031168
144                     106                     110              105.656854      -0.295013433395337      -0.223650579807013      -0.510249860907935
145                     106                     110              102.828427       0.280560915764618       0.210961082207789      0.0122450851769628
146                     106                     110                     100      -0.287198981257636      -0.199261379080556       0.485530340128696
147                     108                     108              105.656854       0.216139608192254       0.249828013590337      -0.359362175220823
148                     108                     108              102.828427      -0.226270622913488       -0.24323777093245    -0.00383714511197827
149                     108                     108                     100       0.227011606353559       0.235202130006372       0.367251711746226
150                     110                     110              105.656854      -0.164358323167617      -0.242315402735852      -0.476951697974376
151                     110                     110              102.828427       0.212612457106063       0.239795690713481   -0.000245761102514842
152                     110                     110                     100      -0.220983505976936       -0.23143111844549       0.477416878721595
153                     112                     108              105.656854       0.177336494715789       0.247642928387781      -0.398498175427051
154                     112                     108              102.828427      -0.198986291301524      -0.266152256698004      0.0115041143490088
155                     112                     108                     100       0.201756065301625       0.266205889017392       0.376442546815298
156                     114                     110              105.656854       -0.19251005218827      -0.177161991082773      -0.377983173422819
157                     114                     110              102.828427       0.214311561822539       0.244110869672626     -0.0305592823954507
158                     114                     110                     100      -0.215455025776079      -0.248572094711751       0.471408041606734
159                     116                     108              105.656854       0.228321055297486       0.250570352376565      -0.425364515296848
160                     116                     108              102.828427      -0.230210353503513      -0.281932777924468      0.0190001058744271
161                     116                     108                     100       0.222040163953816        0.28603918899069       0.388894634941618
162                     118                     110              105.656854       -0.29991667281062      -0.206461693706518       -0.37764704902604
163                     118                     110              102.828427       0.271512708546195       0.260423035433386     -0.0224732477134205
164                     118                     110                     100      -0.251399490113867      -0.260990375679038       0.450972701558784
165                     120                     108              105.656854       0.300164256266843       0.298675034544404      -0.423336777124059
166                     120                     108              102.828427       -0.29093516669395      -0.306851606165717     0.00514748262927674
167                     120                     108                     100       0.274470238064047       0.301817080164613       0.414204510594971
168                     122                     110              105.656854      -0.340699201293595      -0.299311354895408      -0.442106055874336
169                     122                     110              102.828427       0.330449107573824       0.280225850015327     0.00867546589816621
170                     122                     110                     100      -0.314421287536886      -0.266918196832591       0.416975647615044
171                     124                     108              105.656854       0.370877456767855       0.320616396347401       -0.43088452546408
172                     124                     108              102.828427      -0.366205989739883      -0.316922166146049    -0.00564793595415831
173                     124                     108                     100       0.368222253452527       0.305927604967556       0.441119248531302
174                     126                     110              105.656854      -0.435703897447656      -0.271103955194221       -0.43217683274523
175                     126                     110              102.828427        0.37857262189175       0.267481375490266      0.0102867247299851
176                     126                     110                     100      -0.445894771464326      -0.255368880150811        0.41394011982591
177                     128                     108              105.656854       0.687628156371188       0.292459616519737      -0.326973046481637
178                     128                     108              102.828427      -0.246012470325633      -0.294857574107912    -0.00440755401865689
179                     128                     108                     100       0.691232865860828       0.286264296029765       0.334037081518576
180                     130                     110              105.656854        -1.1799791448576      -0.226838232578158       -0.83829197853117
181                     130                     110              102.828427      -0.512983830315683       0.230564461860703     0.00461429330433406
182                     130                     110                     100       -1.18532520003078      -0.222746803347904       0.830888411448794
183                     100                     112              105.656854        1.11960733384625        0.13899429401763      -0.805510737666083
184                     100                     112              102.828427       0.583046681466392      -0.140573654039375     -0.0053175178445727
185                     100                     112                     100        1.11267637835123          0.135985370202       0.814049066719817
186                     102                     114              105.656854      -0.641813154448461      -0.171395738408237        -0.3740480173792
187                     102                     114              102.828427       0.185426256470096        0.17344916604775      0.0105947428308961
188                     102                     114                     100      -0.626246820424454      -0.167831514514898       0.356630691028852
189                     104                     112              105.656854       0.404116413743198       0.190830089107192      -0.369954440845611
190                     104                     112              102.828427      -0.321395370717662      -0.186553263279978     -0.0140745310650014
191                     104                     112                     100       0.383985224646735       0.177730388199886       0.395627380264936
192                     106                     114              105.656854      -0.355238009311246      -0.208719142865589      -0.532197714953646
193                     106                     114              102.828427       0.318057801754436       0.208028853088991      0.0265235305613788
194                     106                     114                     100       -0.32067480601972      -0.199637779190064       0.466523275925891
195                     108                     112              105.656854       0.263499861933578       0.267191247638041      -0.287740000554174
196                     108                     112              102.828427      -0.255610774846523      -0.222411374868036     -0.0203585397688029
197                     108                     112                     100         0.2594522099726       0.210499124336194       0.387868637460539
198                     110                     114              105.656854     -0.0827963349423637      -0.200690614661402      -0.760784820617837
199                     110                     114              102.828427       0.217830561789161       0.224152025850432     0.00543745179608909
200                     110                     114                     100      -0.238413185765688      -0.219582011136267       0.459994263907498
201                     112                     112              105.656854        0.11977509821083       0.210741467668388      -0.475085499565707