ITEM: TIMESTEP
0
ITEM: NUMBER OF ATOMS
422
ITEM: BOX BOUNDS ff ff ff
0.0000000000000000e+00 2.3200000000000000e+02
0.0000000000000000e+00 2.3200000000000000e+02
0.0000000000000000e+00 2.3200000000000000e+02
ITEM: ATOMS id xu yu zu fx fy fz
1        113.145932193839        115.983520815677              111.056854     0.00299386414656744    -0.00120013857170158     -0.0034527374199273
2        118.827484840071        115.989226241634              111.056854    -0.00544415062986978    -0.00116956606584985    -0.00307535047077157
3        117.402344993917        115.987795112765              111.056854     0.00270691889842742     0.00257614489340918    -0.00385360868970952
4        114.571072038949        115.984951942936              111.056854     0.00253866680024734     0.00261764352585403      -0.003457493199587
5        116.701075167769        114.749724850164              111.056854     0.00322410967074352      0.0043998627482707    -0.00368304218061218
6        115.274826990867        114.748292608712              111.056854     0.00368333305386141     0.00441095946074399    -0.00342275439675459
7        115.272341865028        117.223022205388              111.056854     0.00365461554140257     0.00251275852564825    -0.00387797622700754
8        116.698590041422        117.224454446583              111.056854     0.00315998373099619     0.00246650242302524    -0.00413383657068356
9        114.517756920757        113.548446241175              111.056854    -0.00331038643557009    -0.00564277408133358    -0.00411474997418176
10        117.460553482731        113.551401403886              111.056854      -0.013063581286681     -0.0056832383663277    -0.00281916004834419
11        114.512863550773        118.421345651893              111.056854    -0.00324934851513201     -0.0108889286260734    -0.00193082875291064
12        117.455660110655        118.424300814179              111.056854     -0.0126654957120904     -0.0105946533064752   -0.000676224039034224
13        113.127311260236        113.562444587898              111.056854       0.014538681078009    -0.00711103443944647    -0.00456607492618914
14        113.122448808114        118.404554762274              111.056854      0.0144523585164072    -0.00685276022978033    -0.00273003811374976
15        118.850968226168        113.568192293572              111.056854     -0.0286441419383682     -0.0072034657120371    -0.00236584639574042
16        118.846105771496         118.41030247058              111.056854     -0.0281782404583792    -0.00639594958854836   -0.000594616037470203
17        112.426795838139         117.19431994364              111.056854     0.00347222744489249     0.00731588592118509    -0.00326195656258151
18         112.42922905874        114.771279815063              111.056854     0.00343169115968195     0.00115406870498511    -0.00271844046602947
19        119.546621196692        114.778427112272              111.056854      0.0053282722857743     0.00108948253251054    -0.00443011141879423
20        119.544187975028         117.20146724296              111.056854     0.00515845079551965     0.00704156672851589    -0.00495245358505439
21        120.955135022624        114.824435085822              111.056854       0.109433920417111       0.136505535040605     -0.0209310033815378
22        120.952791362251        117.158288229576              111.056854       0.107373022999398     -0.0465848415550782      -0.026474690824831
23        111.020625673161        114.814458829493              111.056854    -0.00700210164081705        0.13750541316011     0.00762045108494596
24        111.018282013145        117.148311972274              111.056854    -0.00584939819025315     -0.0423725886024491     0.00171394015581163
25        121.586726460739        115.991997078118              111.056854     -0.0376164718163544     -0.0238567823101276      0.0101584822841145
26        110.386690574472        115.980749978664              111.056854     -0.0186284363156287     -0.0254817093888877    -0.00774149911811112
27        121.609196045824        118.185922140926              111.056854       -0.12319838727133      -0.057551607747137      0.0341556138723737
28          121.6136022867        113.798121569695              111.056854      -0.128851933220145     -0.0516224546818225      0.0213898372959791
29        110.359814750727        118.174625487296              111.056854    -0.00144059204825633       -0.06541036343568    -0.00563759709165871
30         110.36422099026         113.78682491673              111.056854     0.00126960517186181      -0.051110718531255     -0.0194453646510505
31        112.599866822243        112.615454800093              111.056854     -0.0301070706120735      0.0119864679713785      0.0040427315420943
32        112.593103500599        119.350483321209              111.056854     -0.0296180889181194      0.0255367730733995    -0.00289041259386202
33        119.380313532952        112.622263734631              111.056854      0.0677644560235504      0.0125790347090842    -0.00295751457329294
34        119.373550207142        119.357292260389              111.056854      0.0658322970609373      0.0237220231701142    -0.00960126045694273
35        114.962286572867         112.56896056388              111.056854      0.0124223499642339     0.00682027954962172    0.000641326307870372
36        114.955425108682        119.401722146141              111.056854      0.0121911155069432      0.0177743724322153    -0.00396360011970243
37        117.017991924022        112.571024909739              111.056854      0.0114402634760674     0.00691962891182984   -0.000670022307844387
38        117.011130457531        119.403786490585              111.056854      0.0107246819863055      0.0173935737547321    -0.00521132972283841
39                     100                     100              105.656854       0.212146284855445       0.213800927952286      -0.975557697798191
40                     100                     100              102.828427       0.432019571462949       0.430652980777605   -0.000400383823850698
41                     100                     100                     100       0.212166915579024       0.213237520910871       0.976271305502979
42                     102                     102              105.656854      -0.344451804077568       -0.34717810502541      -0.278176002685696
43                     102                     102              102.828427     -0.0508888487064516     -0.0487649441335722    0.000666919214676881
44                     102                     102                     100       -0.34456059043707      -0.346121394644051       0.276988030097161
45                     104                     100              105.656854      0.0958687733058781       0.959863948107156      -0.808863847916543
46                     104                     100              102.828427     -0.0639109903079207       0.726936860618387   -0.000247502625849195
47                     104                     100                     100      0.0963294368004643       0.959260856253834       0.809294706464252
48                     106                     102              105.656854      -0.149395515157571      -0.514457271408349      -0.381519514819464
49                     106                     102              102.828427       0.142622561556833      0.0661110754338987    0.000254612212011286
50                     106                     102                     100      -0.150533712122866        -0.5134978123664       0.381061722949612
51                     108                     100              105.656854       0.109864236308319        1.06004775874329      -0.802012612330902
52                     108                     100              102.828427      -0.111950995434551        0.63988402164838    0.000332256640921465
53                     108                     100                     100       0.110978647581032        1.06006360099135       0.801398709678117
54                     110                     102              105.656854      -0.143975470744648       -0.58210230133679      -0.373516793971674
55                     110                     102              102.828427       0.148833850121125       0.135096617786322    -0.00104157959201883
56                     110                     102                     100      -0.146241476018335      -0.582879261245433       0.375415092155655
57                     112                     100              105.656854       0.132066508453337        1.10892257990184       -0.81104759329557
58                     112                     100              102.828427      -0.135916896465525       0.588889131425805     0.00122948170800479
59                     112                     100                     100       0.133215880032866        1.11031454614441       0.808809038857604
60                     114                     102              105.656854      -0.164364985788162      -0.620352751212933      -0.360674843760298
61                     114                     102              102.828427       0.169304738403105       0.176282273501575    -0.00250521093305751
62                     114                     102                     100      -0.165679667385584      -0.623674814817474       0.365297540930972
63                     116                     100              105.656854       0.166588453953777         1.1447710345985      -0.821737069493111
64                     116                     100              102.828427      -0.170771619877215       0.551353097347317     0.00170128321055963
65                     116                     100                     100       0.166587243204747        1.14697744470265       0.818639846806691
66                     118                     102              105.656854      -0.208932314085427      -0.652549736756826      -0.347242880493678
67                     118                     102              102.828427       0.213783882508929       0.209526708235095    -0.00250319088133743
68                     118                     102                     100       -0.20761358300102      -0.655866345297164       0.351861652459016
69                     120                     100              105.656854       0.222813189826624        1.18300511485694      -0.835615130740844
70                     120                     100              102.828427      -0.228171752257144       0.512382529145634     0.00122860961963727
71                     120                     100                     100       0.221664677286263        1.18439424196885       0.833378198092411
72                     122                     102              105.656854      -0.287880154439352      -0.688272115940577      -0.329988160955396
73                     122                     102              102.828427       0.292602799531875       0.244660165955039    -0.00104049451948347
74                     122                     102                     100      -0.285620326014427      -0.689045242606278       0.331884509492162
75                     124                     100              105.656854       0.326014307259414        1.23669090136435      -0.852211032412791
76                     124                     100              102.828427      -0.322564474344168       0.459499547929693    0.000333325346933648
77                     124                     100                     100       0.324903497115873        1.23670761975614       0.851595171572383
78                     126                     102              105.656854      -0.461366417293112      -0.727257722948633      -0.332087121905302
79                     126                     102              102.828427        0.39679252456949       0.281289127056343    0.000250851760813889
80                     126                     102                     100      -0.460233394604082      -0.726303923453998       0.331636432389487
81                     128                     100              105.656854       0.708161635478738        1.34051133884326      -0.754664860535917
82                     128                     100              102.828427      -0.280759840202439       0.396316903519359   -0.000244390605257235
83                     128                     100                     100       0.707702494120887        1.33991238798029       0.755090116574803
84                     130                     102              105.656854        -1.3406333784203      -0.708352951346897      -0.755615396084263
85                     130                     102              102.828427      -0.395873079500294       0.280580303912911    0.000661484988490295
86                     130                     102                     100       -1.34052424775476       -0.70730326157625       0.754437250408822
87                     100                     104              105.656854       0.958855250839078      0.0995502348174228      -0.808107535479517
88                     100                     104              102.828427        0.72788577100456     -0.0666781303789878    -0.00104658770400479
89                     100                     104                     100       0.958435046502831      0.0982827326732169       0.809981176459295
90                     102                     106              105.656854      -0.513124654129439      -0.155849547961079       -0.38331306433892
91                     102                     106              102.828427      0.0647607539219862       0.147005633951782     0.00191259706403968
92                     102                     106                     100       -0.51232766105849      -0.153336301927428       0.379811506633699
93                     104                     104              105.656854       0.247113584750503        0.25188696764908      -0.388209074176128
94                     104                     104              102.828427      -0.180058594635855      -0.183464021572084    -0.00111629547667623
95                     104                     104                     100       0.247551914181188       0.249844035587923       0.390254150972311
96                     106                     106              105.656854      -0.233140806438575      -0.242075038381242      -0.504868270225571
97                     106                     106              102.828427       0.225789555334986       0.231349514122342      0.0017632008839018
98                     106                     106                     100       -0.23482100686623       -0.23814407027677       0.501269487549917
99                     108                     104              105.656854       0.174078355751735       0.337658572126762      -0.375328347312239
100                     108                     104              102.828427      -0.178273387841368      -0.268077192197739    4.13500577519719e-05
101                     108                     104                     100       0.176992835472144       0.336428827670501       0.375346553398917
102                     110                     106              105.656854      -0.185498547775689      -0.292045748782221      -0.489435299512265
103                     110                     106              102.828427       0.195161660001413       0.285236368331785    -0.00146697858155797
104                     110                     106                     100      -0.192761229656374      -0.291865861020101       0.491925741059294
105                     112                     104              105.656854       0.168738650100783       0.381037532230044      -0.391625750605192
106                     112                     104              102.828427      -0.175782545710895      -0.315867404145137     0.00281191416182913
107                     112                     104                     100       0.172829149816821       0.384305686641638       0.386332160041075
108                     114                     106              105.656854      -0.191227857407511       -0.31524766099952      -0.466489992418422
109                     114                     106              102.828427       0.199730572519382       0.316124851408272    -0.00646190029680704
110                     114                     106                     100      -0.196308692719394      -0.324374114605697       0.479778761652943
111                     116                     104              105.656854       0.198196186814174        0.40910207014658      -0.407410667107413
112                     116                     104              102.828427      -0.203400583538046      -0.347111569594631     0.00450643886350696
113                     116                     104                     100       0.198187924178813       0.415589710178523       0.398760129731768
114                     118                     106              105.656854      -0.237998885301486      -0.337469297551705      -0.450600631327623
115                     118                     106              102.828427       0.241092455471694       0.339026010084667    -0.00645028019128402
116                     118                     106                     100      -0.232892702715212      -0.346565893222354       0.463862129830708
117                     120                     104              105.656854       0.258677821461994       0.437704817416248       -0.42234412081901
118                     120                     104              102.828427       -0.26321269231737       -0.37437140215336     0.00280551499422798
119                     120                     104                     100       0.254590562240288       0.440956303204827        0.41706348382785
120                     122                     106              105.656854      -0.314748293708159        -0.3620330516814      -0.437667088619653
121                     122                     106              102.828427       0.316788703746233        0.35749158483403     -0.0014587448529338
122                     122                     106                     100      -0.307517725392668      -0.361833770894962       0.440142779213652
123                     124                     104              105.656854       0.367159981955227       0.462962973542402      -0.438652799256443
124                     124                     104              102.828427      -0.361397983143508      -0.397287089419574    4.33490184063062e-05
125                     124                     104                     100       0.364260419080056       0.461736293741373       0.438665945805966
126                     126                     106              105.656854      -0.466091353753179      -0.366378495043596      -0.441776049634817
127                     126                     106              102.828427       0.400551615305256       0.359592354170397     0.00175203494323626
128                     126                     106                     100      -0.464425742822577      -0.362468258047773       0.438204043027077
129                     128                     104              105.656854        0.72805577647775       0.461383877132916      -0.330358980553012
130                     128                     104              102.828427      -0.282538606284385      -0.396152228036707    -0.00110772871835895
131                     128                     104                     100       0.727619722799234       0.459353873357797        0.33238756850767
132                     130                     106              105.656854       -1.23726441508519      -0.327111302580777      -0.854142857550802
133                     130                     106              102.828427      -0.458308978903946       0.322748262574464     0.00189908966954747
134                     130                     106                     100       -1.23805544645488      -0.324614808732871        0.85066725987627
135                     100                     108              105.656854        1.06194624354117       0.115671647075191      -0.799294638574165
136                     100                     108              102.828427       0.639127723955537      -0.115945804591963    -0.00229226499568315
137                     100                     108                     100        1.06014403929342       0.113550216837959       0.803458743801017
138                     102                     110              105.656854      -0.586705809737998      -0.153248984220882      -0.379976290290364
139                     102                     110              102.828427       0.136629607308578       0.154443138263526     0.00423081644136186
140                     102                     110                     100      -0.583003045956327       -0.14945754581326        0.37185526284518
141                     104                     108              105.656854       0.336071451375218       0.185889761659142      -0.370586953969005
142                     104                     108              102.828427      -0.266072250462143      -0.185152917077978    -0.00351664322404754
143                     104                     108                     100       0.334718150385501       0.180857054799397       0.377596707346805
144                     106                     110              105.656854      -0.290241526235298        -0.2067899067759      -0.503034360883316
145                     106                     110              102.828427       0.281912205479352        0.20514115224273     0.00597802253822453
146                     106                     110                     100      -0.289280342297762      -0.197577955511357       0.488139728337704
147                     108                     108              105.656854       0.223767464964197       0.241339462657721      -0.360745010544741
148                     108                     108              102.828427      -0.231571152528576      -0.240445451105834    -0.00210095829273848
149                     108                     108                     100       0.230059126840826       0.234628157623824       0.366743274308178
150                     110                     110              105.656854      -0.205771899292619       -0.23788649628155      -0.480437662119812
151                     110                     110              102.828427       0.226544340074222        0.23911715431983   -0.000279245910521953
152                     110                     110                     100      -0.226506459211997      -0.232063074604534       0.476134813478953
153                     112                     108              105.656854       0.189898790516962       0.262981206410901      -0.392099868421888
154                     112                     108              102.828427      -0.205731980723605      -0.272277825366041     0.00588782213134573
155                     112                     108                     100       0.204690023939735       0.268673943938241       0.379614002118026
156                     114                     110              105.656854      -0.199998892654805      -0.234900405245026      -0.424607428958991
157                     114                     110              102.828427       0.218082059127564       0.255405734758045     -0.0144210846615625
158                     114                     110                     100      -0.216796155705033      -0.252338749210176       0.464420120369162
159                     116                     108              105.656854       0.220223646887511       0.272891141146194      -0.420097444050467
160                     116                     108              102.828427      -0.226093391051774      -0.291080162989528      0.0116401461908538
161                     116                     108                     100       0.220179418615884       0.289432670243701       0.392984668684641
162                     118                     110              105.656854      -0.262802570987472      -0.245953442710954      -0.407398663110301
163                     118                     110              102.828427        0.25728686547929        0.26671541865999     -0.0143747524546408
164                     118                     110                     100       -0.24587979173959      -0.263296326440798       0.447060034526261
165                     120                     108              105.656854       0.285139943270878       0.296640445172686      -0.426829747747019
166                     120                     108              102.828427      -0.282474762434655       -0.30693165136189     0.00585526943129556
167                     120                     108                     100       0.270365719329439       0.302254168775894       0.414427350730658
168                     122                     110              105.656854      -0.330848255222393      -0.271457295572671       -0.42409425924616
169                     122                     110              102.828427       0.323112158194702       0.273669493017754   -0.000239635557327008
170                     122                     110                     100      -0.310267049762148      -0.265541727873544        0.41970824188224
171                     124                     108              105.656854       0.373104215952201       0.310954401094487      -0.433108266156165
172                     124                     108              102.828427      -0.365400129483954      -0.312344763286769    -0.00209749736010392
173                     124                     108                     100       0.366873183822506       0.304255938107023       0.439076309596264
174                     126                     110              105.656854      -0.445173145706026      -0.262662045098457      -0.431615909838076
175                     126                     110              102.828427       0.381729831371654       0.262869477579466     0.00595152360852985
176                     126                     110                     100      -0.446161675839522      -0.253488612613544       0.416826409630166
177                     128                     108              105.656854       0.690440176345322       0.289996383801332      -0.325891262455703
178                     128                     108              102.828427      -0.247697440305079      -0.292677435012841    -0.00349414384123818
179                     128                     108                     100       0.691788490255916       0.284995051454135       0.332848549364119
180                     130                     110              105.656854       -1.18276176111378      -0.225604724745357      -0.839943116141837
181                     130                     110              102.828427      -0.510747728306209       0.229198203236553     0.00420339345081456
182                     130                     110                     100       -1.18644041139015      -0.221835792817518       0.831881275457389
183                     100                     112              105.656854        1.11577308839667        0.13711078491535      -0.805415689942576
184                     100                     112              102.828427       0.585464464782435      -0.139183213386353    -0.00385026543118199
185                     100                     112                     100        1.11170060135749       0.135192152864509       0.812542148266376
186                     102                     114              105.656854      -0.632353882991661      -0.169117760230893       -0.37238765414042
187                     102                     114              102.828427       0.181125976300402       0.172040974402216     0.00643744758173757
188                     102                     114                     100      -0.625177133272481      -0.167168899667895       0.359608627874214
189                     104                     112              105.656854       0.390882986788733       0.181957576477126      -0.375694877337084
190                     104                     112              102.828427      -0.318134773787041      -0.182562198673402    -0.00741741012716123
191                     104                     112                     100       0.384168164164674        0.17624116864334       0.392083927659228
192                     106                     114              105.656854       -0.32934220528269      -0.203407280735271      -0.502068145251155
193                     106                     114              102.828427       0.317358986449135       0.205204916835507      0.0107787480615992
194                     106                     114                     100      -0.323191070367138      -0.198766614986674       0.471749756313019
195                     108                     112              105.656854       0.257115899282464       0.220410568571313       -0.35603057407472
196                     108                     112              102.828427      -0.265920436554705      -0.217232615948823    -0.00732237166532879
197                     108                     112                     100       0.264793988046754       0.209561654190498       0.385046259991348
198                     110                     114              105.656854        -0.2077847704472      -0.218459617865777      -0.472244765663368
199                     110                     114              102.828427       0.244297038845741       0.226069643470258     0.00169469213572307
200                     110                     114                     100      -0.247168998642265      -0.219994195098522       0.458555567911131
201                     112                     112              105.656854       0.186096354853096       0.225584559085412      -0.418029456199047