ITEM: TIMESTEP
0
ITEM: NUMBER OF ATOMS
422
ITEM: BOX BOUNDS ff ff ff
0.0000000000000000e+00 2.3200000000000000e+02
0.0000000000000000e+00 2.3200000000000000e+02
0.0000000000000000e+00 2.3200000000000000e+02
ITEM: ATOMS id xu yu zu fx fy fz
1        113.145932193839        115.983520815677              110.256854     0.00299182518619401     -0.0012514648980551    -0.00868465078870842
2        118.827484840071        115.989226241634              110.256854    -0.00555329004629587    -0.00121878722420078    -0.00832479224187109
3        117.402344993917        115.987795112765              110.256854     0.00301633385401343     0.00267995900511653    -0.00898451574618406
4        114.571072038949        115.984951942936              110.256854     0.00245987977956602     0.00272243378754689    -0.00861352169818662
5        116.701075167769        114.749724850164              110.256854      0.0036023526659508     0.00429218731456277    -0.00882984226011707
6        115.274826990867        114.748292608712              110.256854     0.00359245744465524     0.00430464821171705    -0.00858680502308126
7        115.272341865028        117.223022205388              110.256854     0.00356114225027704     0.00291850229591251    -0.00901298928958715
8        116.698590041422        117.224454446583              110.256854     0.00353541647849959     0.00287072775475014    -0.00925155758423547
9        114.517756920757        113.548446241175              110.256854    -0.00340509276058849    -0.00620272671860152    -0.00856046404997959
10        117.460553482731        113.551401403886              110.256854     -0.0136786390777281      -0.006243039634553    -0.00733841867775695
11        114.512863550773        118.421345651893              110.256854    -0.00334266030738259     -0.0110789636173954    -0.00646214215510046
12        117.455660110655        118.424300814179              110.256854     -0.0132641182436961     -0.0107698440201874    -0.00528794608876243
13        113.127311260236        113.562444587898              110.256854      0.0139819211215563    -0.00756310086208786    -0.00929153505225694
14        113.122448808114        118.404554762274              110.256854      0.0138905221262716    -0.00703567493035885    -0.00753328249655203
15        118.850968226168        113.568192293572              110.256854     -0.0287335293436529    -0.00765649569827152    -0.00717801427487527
16        118.846105771496         118.41030247058              110.256854     -0.0282451839959079    -0.00655267873581797    -0.00547920161684639
17        112.426795838139         117.19431994364              110.256854     0.00385102848994055      0.0078051446020499    -0.00834966973414822
18         112.42922905874        114.771279815063              110.256854     0.00380858119781375     0.00103117238492187    -0.00784549092820555
19        119.546621196692        114.778427112272              110.256854     0.00536177853242863    0.000962702130435616    -0.00947934405673238
20        119.544187975028         117.20146724296              110.256854      0.0051828408144526     0.00751618170591664    -0.00996959187284295
21        120.955135022624        114.824435085822              110.256854       0.115015211876771       0.136009811394684     -0.0258255563402978
22        120.952791362251        117.158288229576              110.256854       0.112843611491392     -0.0422843251392208     -0.0310304017797788
23        111.020625673161        114.814458829493              110.256854    -0.00703173641273003       0.137073663505342     0.00133722954179549
24        111.018282013145        117.148311972274              110.256854    -0.00583516916164223     -0.0378568298426787    -0.00415826189596487
25        121.586726460739        115.991997078118              110.256854     -0.0401810934127235     -0.0248301696244097     0.00618805917143832
26        110.386690574472        115.980749978664              110.256854     -0.0193663532911407     -0.0265126551640561     -0.0109152702055003
27        121.609196045824        118.185922140926              110.256854      -0.128816419905066     -0.0591395896817968      0.0346215445481773
28          121.6136022867        113.798121569695              110.256854      -0.134738222017721     -0.0548649683986885      0.0224542817925757
29        110.359814750727        118.174625487296              110.256854    -0.00319701595286795     -0.0674375259949559    -0.00338109416467771
30         110.36422099026         113.78682491673              110.256854   -0.000341780971460648     -0.0543821282951334     -0.0165958375296727
31        112.599866822243        112.615454800093              110.256854     -0.0285360085970284      0.0135701491750528     0.00307348872980677
32        112.593103500599        119.350483321209              110.256854     -0.0280291879419497       0.025701383476943    -0.00357181985789207
33        119.380313532952        112.622263734631              110.256854      0.0679565314831544      0.0141912546347745    -0.00363410610022551
34        119.373550207142        119.357292260389              110.256854      0.0659247471831993      0.0237993450776523     -0.0100032694591098
35        114.962286572867         112.56896056388              110.256854      0.0122667172779733     0.00785859279994972   -0.000920293199436805
36        114.955425108682        119.401722146141              110.256854      0.0120255160685336      0.0178830807881259     -0.0053417695006311
37        117.017991924022        112.571024909739              110.256854      0.0126080801258769     0.00796368294715527    -0.00214990457873511
38        117.011130457531        119.403786490585              110.256854      0.0118595084403647      0.0174857845311564    -0.00649340066527696
39                     100                     100              105.656854       0.212152912428047        0.21387855444166      -0.975588551647276
40                     100                     100              102.828427       0.432020758165301        0.43056930574758   -0.000402067911255377
41                     100                     100                     100       0.212155324015845        0.21330742102307       0.976292400473983
42                     102                     102              105.656854      -0.344461518728005      -0.347344930149891      -0.278134458622815
43                     102                     102              102.828427     -0.0509014030095948     -0.0486057434949172    0.000692323343068587
44                     102                     102                     100      -0.344526786787843      -0.346237139242309        0.27693599080587
45                     104                     100              105.656854      0.0958201422886021       0.959960189560652      -0.808876673362206
46                     104                     100              102.828427     -0.0638451216119903       0.726845646118524   -0.000265921175191441
47                     104                     100                     100      0.0962591237699744       0.959325557901937       0.809323818598262
48                     106                     102              105.656854      -0.149253795642083      -0.514645223114371       -0.38152441720609
49                     106                     102              102.828427        0.14245566494846      0.0662579792841626    0.000307082569602147
50                     106                     102                     100      -0.150380221077288      -0.513580323659746        0.38101034131948
51                     108                     100              105.656854        0.10971318481863        1.06006055152059      -0.801979390008873
52                     108                     100              102.828427       -0.11178655121276       0.639884529942859    0.000310061709765622
53                     108                     100                     100       0.110836576548344        1.06005017300786       0.801405687713823
54                     110                     102              105.656854      -0.143613469149037      -0.581993485199244      -0.373594717837964
55                     110                     102              102.828427       0.148494664731915       0.134981802435506    -0.00103677169269207
56                     110                     102                     100      -0.145989717430668      -0.582782223312923       0.375450404850944
57                     112                     100              105.656854       0.131894224949223        1.10870550717083      -0.810960221196152
58                     112                     100              102.828427      -0.135745419932726       0.589097131842476     0.00123596017141264
59                     112                     100                     100       0.133081580875492         1.1101565837955       0.808757904018515
60                     114                     102              105.656854       -0.16413796085952      -0.619731101741898      -0.360794818967148
61                     114                     102              102.828427       0.169106851103135       0.175782236224417    -0.00261051285747116
62                     114                     102                     100      -0.165544137736284      -0.623354220521738       0.365457978266691
63                     116                     100              105.656854       0.166588662514137        1.14440918302215      -0.821625532305511
64                     116                     100              102.828427      -0.170771802230473       0.551684425299191     0.00173053988049004
65                     116                     100                     100       0.166587367982695        1.14673925660532       0.818553521746196
66                     118                     102              105.656854      -0.209160075435765      -0.651929258038378       -0.34736287898651
67                     118                     102              102.828427       0.213982377804231       0.209027490718389     -0.0026082644083648
68                     118                     102                     100      -0.207749517073602      -0.655546212717488         0.3520218938067
69                     120                     100              105.656854       0.222985304337701        1.18278853143457      -0.835527786826853
70                     120                     100              102.828427      -0.228343096915566       0.512590103888408     0.00123502819191685
71                     120                     100                     100       0.221798903763749        1.18423657699042       0.833327133808817
72                     122                     102              105.656854      -0.288240907977175      -0.688163840609708       -0.33006600564781
73                     122                     102              102.828427       0.292941046567442         0.2445459210486    -0.00103568604663627
74                     122                     102                     100       -0.28587155221163      -0.688948671733203       0.331919771025714
75                     124                     100              105.656854       0.326164790132608        1.23670341995221      -0.852177780833598
76                     124                     100              102.828427      -0.322728377027649       0.459500199242419     0.00031123405480884
77                     124                     100                     100       0.325045171253103        1.23669418558213       0.851602034704102
78                     126                     102              105.656854      -0.461507401389679      -0.727444244681304      -0.332092036341211
79                     126                     102              102.828427       0.396958644813904       0.281435156740918    0.000302868623381828
80                     126                     102                     100      -0.460386273717774       -0.72638611408273       0.331585473055102
81                     128                     100              105.656854       0.708210115839232        1.34060681182786      -0.754677514770774
82                     128                     100              102.828427      -0.280825488935349       0.396226324675446   -0.000262657979714719
83                     128                     100                     100       0.707772576036992        1.33997671799153       0.755118980133226
84                     130                     102              105.656854       -1.34062390922138      -0.708518447829888      -0.755574118940723
85                     130                     102              102.828427      -0.395860456778685       0.280738428474613    0.000686573402419462
86                     130                     102                     100        -1.3405579603255      -0.707418383918815       0.754385672734692
87                     100                     104              105.656854       0.958947184716592      0.0997468714313091      -0.808176889544138
88                     100                     104              102.828427       0.727818820911206     -0.0668685878441918    -0.00107416384331146
89                     100                     104                     100        0.95846025392652      0.0984244012900761        0.81005077747447
90                     102                     106              105.656854      -0.513361212306169       -0.15632098195491      -0.383242155380398
91                     102                     106              102.828427      0.0648879194150768       0.147386527027996     0.00204980944829832
92                     102                     106                     100      -0.512346589031528      -0.153571808447244       0.379638529015261
93                     104                     104              105.656854       0.247116853425209       0.252279918303087      -0.388239555047712
94                     104                     104              102.828427      -0.179998505997217      -0.183774441632785    -0.00121910385028014
95                     104                     104                     100       0.247455874242402       0.250028979100319       0.390372142979582
96                     106                     106              105.656854      -0.233043492765154      -0.243087220435707       -0.50500250537036
97                     106                     106              102.828427       0.225537968716971       0.231938401695023     0.00209191571001395
98                     106                     106                     100      -0.234557593632723       -0.23840647420095       0.501034381103077
99                     108                     104              105.656854       0.173620200075443       0.337994467088359      -0.375251608532674
100                     108                     104              102.828427      -0.177837423195806      -0.268264475227683   -6.65108670508976e-05
101                     108                     104                     100       0.176664836395314       0.336493784667038        0.37540608545304
102                     110                     106              105.656854      -0.183941581004233      -0.292306878751147       -0.48962065880873
103                     110                     106              102.828427       0.194077161759442        0.28525811350046    -0.00140664529954506
104                     110                     106                     100      -0.192125550195426      -0.291796433202732        0.49197338863567
105                     112                     104              105.656854       0.167940007234939       0.380356625707152      -0.391546361740221
106                     112                     104              102.828427      -0.175167247708718      -0.315379051646871     0.00297327459028513
107                     112                     104                     100       0.172448090112436       0.384011170029715       0.386139022632512
108                     114                     106              105.656854      -0.190005076358239      -0.312642885847441      -0.466034314995394
109                     114                     106              102.828427       0.198973697589655       0.314800550793753    -0.00726845231958905
110                     114                     106                     100      -0.195919977699267      -0.323757540980703       0.480361781505165
111                     116                     104              105.656854       0.198198026404939       0.407621533265969      -0.407383515655647
112                     116                     104              102.828427        -0.2034018213442      -0.346141242711146     0.00488556198894784
113                     116                     104                     100       0.198188605768767         0.4150664813669       0.398395365562085
114                     118                     106              105.656854      -0.239228091817029      -0.334874273967031      -0.450147718268382
115                     118                     106              102.828427         0.2418530582066       0.337705960136471    -0.00725435576366374
116                     118                     106                     100      -0.233283355469963      -0.345951036090222       0.464443853415215
117                     120                     104              105.656854       0.259475338394457       0.437027893253348      -0.422264383604754
118                     120                     104              102.828427      -0.263827503519758      -0.373885529580937     0.00296602945759563
119                     120                     104                     100       0.254971542062887       0.440663094713536       0.416870977817598
120                     122                     106              105.656854      -0.316295428080378      -0.362297469156915      -0.437852015950217
121                     122                     106              102.828427        0.31786851848963       0.357516289302908    -0.00139795284527584
122                     122                     106                     100      -0.308151599916093      -0.361766236908493       0.440189716957684
123                     124                     104              105.656854       0.367615132115753       0.463296965356852      -0.438576679256587
124                     124                     104              102.828427      -0.361831686320666      -0.397473935355091   -6.37081391906634e-05
125                     124                     104                     100       0.364587115673945       0.461801497181874       0.438725093003286
126                     126                     106              105.656854      -0.466187200535815      -0.367382340960855      -0.441907582264399
127                     126                     106              102.828427       0.400800912030434       0.360178291575021     0.00207760526579781
128                     126                     106                     100      -0.464687437068809      -0.362730199705645        0.43797049186403
129                     128                     104              105.656854       0.728052706621753       0.461773570520344       -0.33038956162073
130                     128                     104              102.828427      -0.282598360165104      -0.396460674015098    -0.00120941401088883
131                     128                     104                     100       0.727715238276625       0.459538022495357       0.332504594233847
132                     130                     106              105.656854       -1.23703012981742      -0.327578605665191       -0.85407181710325
133                     130                     106              102.828427      -0.458435227061726       0.323126601308634     0.00203458322843322
134                     130                     106                     100       -1.23803651612655      -0.324849234857421       0.850495778836889
135                     100                     108              105.656854        1.06233529106533       0.116045795547665      -0.799406440435557
136                     100                     108              102.828427       0.638848998069689      -0.116266654217725    -0.00241488135927623
137                     100                     108                     100        1.06027557663577       0.113761521628059       0.803642074477945
138                     102                     110              105.656854      -0.587780080514506      -0.154089674322145      -0.379998782532317
139                     102                     110              102.828427       0.137191267398282       0.155014772414134     0.00469946823501085
140                     102                     110                     100      -0.583177258967064       -0.14976201232213       0.371428461716343
141                     104                     108              105.656854       0.336741315251512        0.18713952131984      -0.370431065389771
142                     104                     108              102.828427      -0.266273624426966      -0.185905716065242    -0.00402426858634846
143                     104                     108                     100       0.334667073868454       0.181216517861941       0.377990603977737
144                     106                     110              105.656854      -0.292079254966428      -0.210202182506821      -0.504999511920447
145                     106                     110              102.828427        0.28195676392181       0.206430137547734     0.00755272661533454
146                     106                     110                     100       -0.28894900910775      -0.198016613911963        0.48738599699542
147                     108                     108              105.656854       0.222820013673809       0.244004532464445      -0.359635332664834
148                     108                     108              102.828427      -0.230605992460419      -0.241370209438391    -0.00292746001604084
149                     108                     108                     100        0.22940135544089       0.234894195793357       0.367087752756642
150                     110                     110              105.656854      -0.198885989496275       -0.24189479507642      -0.483700458628779
151                     110                     110              102.828427       0.223625734474182       0.239795580526168    0.000770395437644606
152                     110                     110                     100      -0.225179129990006      -0.232109249664991       0.476013327684545
153                     112                     108              105.656854       0.185513409558483       0.261215280387225      -0.392897386915288
154                     112                     108              102.828427      -0.203591219583545      -0.271454509898361     0.00664640595235706
155                     112                     108                     100       0.203718171129068       0.268273191130287       0.379100116052435
156                     114                     110              105.656854      -0.193953159771096      -0.225539797242591      -0.414503025838039
157                     114                     110              102.828427        0.21574054222171       0.253256444446518     -0.0177250324685375
158                     114                     110                     100      -0.215899476660796      -0.251567297790798       0.465911266150947
159                     116                     108              105.656854       0.220237749250898        0.26677809249727      -0.422967509429478
160                     116                     108              102.828427      -0.226099744696634      -0.288770244039224      0.0138620716352924
161                     116                     108                     100       0.220182059412176       0.288553399553322       0.391812781842573
162                     118                     110              105.656854      -0.268902654356789      -0.236640866409684      -0.397344707042041
163                     118                     110              102.828427       0.259645025973177       0.264578273497709     -0.0176635756933999
164                     118                     110                     100       -0.24678293571617      -0.262528716459804       0.448545795901711
165                     120                     108              105.656854       0.289515223825924       0.294904716118756      -0.427613288943948
166                     120                     108              102.828427      -0.284613418748415      -0.306119353014957     0.00660584083623336
167                     120                     108                     100       0.271337650570634       0.301857512921164       0.413917089375472
168                     122                     110              105.656854      -0.337648106463524      -0.275496296223281      -0.427360770355223
169                     122                     110              102.828427       0.326011851983062       0.274360678614414    0.000815979239173907
170                     122                     110                     100      -0.311589533062548      -0.265593145471475       0.419582393751604
171                     124                     108              105.656854       0.374035970903789       0.313602133507534      -0.432013055219214
172                     124                     108              102.828427      -0.366356202121353      -0.313268850242982    -0.00291876277817725
173                     124                     108                     100       0.367527006794479       0.304523437863941       0.439419945956227
174                     126                     110              105.656854      -0.443345748996191      -0.266044396254656      -0.433546833482768
175                     126                     110              102.828427       0.381679698039054        0.26415436293192     0.00751208074927245
176                     126                     110                     100      -0.446488733361263      -0.253927856091827       0.416076387340003
177                     128                     108              105.656854        0.68977639975345       0.291234378308513       -0.32574012316694
178                     128                     108              102.828427       -0.24749653975164       -0.29342575057762    -0.00399612991571673
179                     128                     108                     100       0.691838479750312       0.285353490132925       0.333239508250816
180                     130                     110              105.656854       -1.18169799423841      -0.226437961892661      -0.839962229358574
181                     130                     110              102.828427      -0.511305955438779       0.229766512837261     0.00466637948200207
182                     130                     110                     100       -1.18626635240745      -0.222139376883484       0.831457925454708
183                     100                     112              105.656854        1.11670593801184        0.13747925192867      -0.805532835132716
184                     100                     112              102.828427       0.584840936578324      -0.139473808623078    -0.00414206731312219
185                     100                     112                     100        1.11198927379677       0.135368484836744       0.812883819147787
186                     102                     114              105.656854      -0.634533891491172      -0.169572395951706       -0.37262656665653
187                     102                     114              102.828427       0.182196502135969         0.1723343385577     0.00730037194730858
188                     102                     114                     100      -0.625519947004116      -0.167316493856292        0.35892805358828
189                     104                     112              105.656854       0.393901664990735       0.183656410346777       -0.37451710830507
190                     104                     112              102.828427      -0.319061452612432      -0.183395741830308    -0.00886870842067261
191                     104                     112                     100       0.384266579695821       0.176586440159989       0.392945837305892
192                     106                     114              105.656854      -0.335147149978839      -0.205004436945587       -0.50812923091436
193                     106                     114              102.828427       0.317962643892932        0.20586962743808      0.0141235296782259
194                     106                     114                     100      -0.322850561311377      -0.198990063946403       0.470413569013668
195                     108                     112              105.656854       0.259308921733772       0.227094785609736      -0.344075083974704
196                     108                     112              102.828427      -0.264444493451268       -0.21851389502576     -0.0106387237826332
197                     108                     112                     100       0.263759095507908       0.209873095096476       0.386022360842151
198                     110                     114              105.656854      -0.188461892946541      -0.214090138576776      -0.480061150188916
199                     110                     114              102.828427       0.239259767297501       0.226166713380158     0.00428222559785773
200                     110                     114                     100       -0.24519473994924      -0.220012465100037       0.458203302265261
201                     112                     112              105.656854       0.168344047462039       0.225093514432936      -0.419263727606824