ITEM: TIMESTEP
0
ITEM: NUMBER OF ATOMS
422
ITEM: BOX BOUNDS ff ff ff
0.0000000000000000e+00 2.3200000000000000e+02
0.0000000000000000e+00 2.3200000000000000e+02
0.0000000000000000e+00 2.3200000000000000e+02
ITEM: ATOMS id xu yu zu fx fy fz
1        113.113410163222        115.950998785061        108.624331969383     -0.0047986582311622    0.000472324432699586     0.00987612629277948
2        118.843058816826        116.004800218389        108.672427976754     0.00092427500546331    -0.00148871286184709     0.00603460321729941
3        117.424265052848        116.009715171696        108.678774058931   -0.000152061748288034     0.00256718509230595      0.0110348516413451
4         114.55651479832        115.970394702307        108.642296759371     0.00676882778431433     0.00413753678759842      0.0159826153547187
5        116.719245582163        114.767895264558        108.675024414394     -0.0160046536236901      0.0160593680556799      0.0364699756651491
6        115.241006717289        114.714472335133        108.623033726421      0.0303852562453348      0.0193028727103971       0.053989016186817
7        115.264061636679        117.214741977039        108.648573771651      0.0258676484016423    -0.00999476477415667      0.0420532430330641
8        116.658855343338        117.184719748499        108.617119301917     -0.0176789003804625    -0.00969090180299339      0.0408783329384864
9        114.507019674216        113.537708994634        108.646116753459       0.031148557805165     -0.0390022482529974       0.163644922932934
10        117.482912297215         113.57376021837        108.679212814484     -0.0467023788883324     -0.0337360572007122       0.148050182179988
11        114.550515743705        118.458997844825        108.694506192932      0.0273674332360958      0.0149230649276877        0.13432902764907
12        117.490599488394        118.459240191918        108.691793377739     -0.0445118747983567      0.0162042337295187       0.141008904421373
13        113.135467288151        113.570600615812        108.665010027915     -0.0282107870687959     -0.0292425910305257       0.108183216874684
14        113.151604905404        118.433710859564         108.68601009729     -0.0261355791769046       0.013046621220803        0.10300827723262
15        118.888878294998        113.606102362402         108.69476406883     0.00828796472936493     -0.0260408713930547      0.0971236266423257
16        118.827298040116          118.3914947392         108.63804626862      0.0167237636276619      0.0154868641873648       0.131719057274548
17        112.420001863972        117.187525969473        108.650060025833    -0.00830331260387944     0.00196168652280742      0.0216654820808901
18        112.425805693903        114.767856450227        108.653430635163    -0.00933478626579643     0.00757470930426537      0.0229239425693576
19        119.511159073164        114.742964988744        108.621391876472      0.0234166752449287      0.0100507652513451      0.0307720640364392
20        119.575524408807        117.232803676739        108.688190433779      0.0173950473099188     0.00243449738862474      0.0165389072559509
21        120.939559848718        114.808859911917        108.641278826094       0.130572402782512       0.126772606049062      0.0374420856297791
22        120.989167824777        117.194664692102        108.693230462526       0.128009106443584     -0.0246704845271004      0.0222880804826742
23        111.011845275554        114.805678431885        108.648073602393     -0.0136621413115652       0.127601215481492      0.0609984161359167
24        111.051699457882         117.18172941701        108.690271444737     -0.0138563906858416     -0.0163339887972756      0.0447507244324672
25        121.564832086163        115.970102703542        108.634959625424     -0.0583601787355877     -0.0250073900073546     0.00377061028165373
26        110.393598671056        115.987658075249        108.663762096584    -0.00883535089376568     -0.0278316087671223     -0.0109594399430992
27        121.565759567525        118.142485662628        108.613417521701      -0.182686505367149     -0.0453492456773011       0.203329287918081
28        121.625347246177        113.809866529171        108.668598959477       -0.17576638537202     -0.0799886178957286       0.171975370190454
29        110.322806037684        118.137616774253        108.619845286957      0.0246073903757461     -0.0590291626316803       0.178213775855941
30        110.342835606701         113.76543953317         108.63546861644      0.0299770288827367     -0.0865681235444906       0.154009176600684
31         112.59818378977        112.613771767621        108.655170967527     -0.0161769718795884      0.0257666864182474      0.0123470355496467
32        112.603704446963        119.361084267573        108.667454946364     -0.0124781547034042       0.017866018467164     0.00482428960468973
33        119.391191120102        112.633141321781         108.66773158715      0.0577660901632103       0.026836394991139     0.00655680783442645
34        119.420840374186        119.404582427433        108.704144167044      0.0569808788044585      0.0121478136607328   -0.000971619382079994
35        114.959856049725        112.566530040737        108.654423476858     0.00413932325825105      0.0148193882780005   -0.000472182664568681
36        114.975868172037        119.422165209496        108.677297063355     0.00488387121944146      0.0134009450758953    -0.00470761554811648
37         116.96897118853        112.522004174248        108.607833264509      0.0238142279631467      0.0146280738526767   -0.000168705013042572
38        117.006814641586        119.399470674639        108.652538184055      0.0220106144118823      0.0117982192578186    -0.00575047591817558
39                     100                     100              105.656854       0.212223249541184       0.214112974349418      -0.975692845361498
40                     100                     100              102.828427       0.431961343027771       0.430303102030439   -0.000389356545295239
41                     100                     100                     100       0.212188225132901       0.213547104495469       0.976347940097213
42                     102                     102              105.656854      -0.344565868331477        -0.3478011249729       -0.27796679934049
43                     102                     102              102.828427     -0.0508345808930665     -0.0481196201043602    0.000719408285906383
44                     102                     102                     100      -0.344534179379901      -0.346629842396822       0.276797387233323
45                     104                     100              105.656854      0.0957765571886957       0.960274722989933      -0.808952054093536
46                     104                     100              102.828427         -0.063757989001       0.726515550262881   -0.000295415267576506
47                     104                     100                     100       0.096148437328618       0.959593942910369       0.809413226231767
48                     106                     102              105.656854      -0.149043612077733      -0.515223475899252      -0.381447281471689
49                     106                     102              102.828427       0.142157139346811      0.0668009481945185    0.000419064316132875
50                     106                     102                     100      -0.150077261247908      -0.513956661819426       0.380836766674309
51                     108                     100              105.656854       0.109438342610259        1.06024968043887      -0.801930838690636
52                     108                     100              102.828427      -0.111445841242138       0.639721799281146    0.000241731890065805
53                     108                     100                     100       0.110521786154028        1.06016082938456       0.801469112572685
54                     110                     102              105.656854      -0.142892882892305      -0.582015799630295      -0.373793439548591
55                     110                     102              102.828427       0.147717053909567       0.134945569572873   -0.000950657728315039
56                     110                     102                     100      -0.145372740196617      -0.582729565058694       0.375441291686879
57                     112                     100              105.656854        0.13152925487364        1.10844209759777      -0.810719079414463
58                     112                     100              102.828427      -0.135335442275463       0.589411810492521     0.00118117005665685
59                     112                     100                     100       0.132737420331422          1.109908203945       0.808706649170346
60                     114                     102              105.656854      -0.163614327663442      -0.618662427515021       -0.36128710126976
61                     114                     102              102.828427       0.168580685014978       0.174768932638084    -0.00268967492099319
62                     114                     102                     100      -0.165152854366129      -0.622689126120616       0.365736274291026
63                     116                     100              105.656854       0.166524504673294        1.14382651446853      -0.821283983371154
64                     116                     100              102.828427      -0.170711714957036       0.552316788065206     0.00170500250007113
65                     116                     100                     100       0.166535670114385        1.14626565590029       0.818419518135609
66                     118                     102              105.656854      -0.209512739921862       -0.65080319175365      -0.347853106938423
67                     118                     102              102.828427       0.214352375819309       0.207965787564691    -0.00270425987115992
68                     118                     102                     100      -0.208011818197613      -0.654847546624757       0.352321111304126
69                     120                     100              105.656854       0.223238019083325        1.18245098015135       -0.83528958457207
70                     120                     100              102.828427      -0.228648365742562       0.512969910141771     0.00119866523827116
71                     120                     100                     100       0.222052293356028         1.1839390103586       0.833250938904797
72                     122                     102              105.656854      -0.288839693759406      -0.688027862686321      -0.330254829525388
73                     122                     102              102.828427       0.293607527637274         0.2443794069959     -0.0009950170100876
74                     122                     102                     100      -0.286393689461321      -0.688805553230308       0.331965728354727
75                     124                     100              105.656854       0.326373485932145        1.23677091791493      -0.852136063850447
76                     124                     100              102.828427      -0.323006306698761       0.459444008781554    0.000273142161109646
77                     124                     100                     100       0.325302548497987         1.2367230991897       0.851624783940805
78                     126                     102              105.656854      -0.461680509884739      -0.727836403337741      -0.332000012925137
79                     126                     102              102.828427       0.397218687967985       0.281821840247597    0.000361533333021621
80                     126                     102                     100      -0.460648793940504      -0.726648670870124       0.331478378961285
81                     128                     100              105.656854       0.708237573903452        1.34079698346158       -0.75476162894227
82                     128                     100              102.828427      -0.280895292052614       0.396006957769228   -0.000260987428200528
83                     128                     100                     100       0.707863285638287        1.34015673724163       0.755165596529641
84                     130                     102              105.656854        -1.3405383127203      -0.708823341198705      -0.755392449283663
85                     130                     102              102.828427      -0.395914401538576       0.281092354173762    0.000670009838207029
86                     130                     102                     100       -1.34055352213233      -0.707707895798678       0.754304674781675
87                     100                     104              105.656854       0.959243251862201       0.100246338663224      -0.808428015900701
88                     100                     104              102.828427       0.727543191393056     -0.0674095596134697     -0.0010893265403341
89                     100                     104                     100       0.958636439946481      0.0988654325260623          0.810222830596
90                     102                     106              105.656854      -0.514051194927338      -0.157471714083944      -0.382817507514657
91                     102                     106              102.828427      0.0654198886420629       0.148479864391269     0.00227218582936739
92                     102                     106                     100      -0.512589203324004       -0.15432504670862       0.379185736200888
93                     104                     104              105.656854       0.247268235191569       0.253295674120203      -0.388495477390456
94                     104                     104              102.828427      -0.180021934215369      -0.184725662952711    -0.00140430965239377
95                     104                     104                     100       0.247354227716476       0.250676255170083       0.390704288362159
96                     106                     106              105.656854      -0.233156213406826      -0.245751450446538      -0.504778068368057
97                     106                     106              102.828427       0.225233956882368       0.233878130201997     0.00284356073927923
98                     106                     106                     100      -0.234080593354628      -0.239414557625574        0.50029380244244
99                     108                     104              105.656854       0.172775026862968       0.339058962629264      -0.375230174062048
100                     108                     104              102.828427      -0.176898256797391      -0.269072872437294   -0.000358412256860412
101                     108                     104                     100       0.175906168867826       0.336925339233813       0.375675711125146
102                     110                     106              105.656854      -0.180540392473131      -0.293550562400961      -0.490004104407508
103                     110                     106              102.828427       0.191330769495843       0.285897607326764    -0.00103101017885196
104                     110                     106                     100      -0.190442235995781      -0.291970880611917       0.491838364084415
105                     112                     104              105.656854       0.166214882762956       0.379215817926763      -0.391043800481348
106                     112                     104              102.828427      -0.173607413953125      -0.314439800826535     0.00314137191929584
107                     112                     104                     100       0.171417786043692       0.383456077233306       0.385818050470535
108                     114                     106              105.656854      -0.187086334953503      -0.306585992892187      -0.466418769335594
109                     114                     106              102.828427       0.196822825460489       0.311379650873009    -0.00888334825118481
110                     114                     106                     100      -0.194745137799184      -0.322230479195448       0.481689776107001
111                     116                     104              105.656854       0.198074895462474       0.404610944813422      -0.406630597011245
112                     116                     104              102.828427      -0.203292217970557      -0.343832324854645     0.00549328871096582
113                     116                     104                     100       0.198102987281311       0.413813086162006       0.397620749319077
114                     118                     106              105.656854      -0.241789171214279      -0.328690592531823       -0.45052519605885
115                     118                     106              102.828427       0.243709382999972        0.33419725588512    -0.00892812022360175
116                     118                     106                     100      -0.234247153676234       -0.34437873139406       0.465824322291993
117                     120                     104              105.656854       0.260977071510008       0.435707424868588      -0.421774742376173
118                     120                     104              102.828427      -0.265195488318637      -0.372811111259343     0.00319584769486387
119                     120                     104                     100       0.255852264837877       0.440025889682354       0.416485026865736
120                     122                     106              105.656854      -0.319440648388308       -0.36307746657822      -0.438158004377495
121                     122                     106              102.828427       0.320411159132462       0.357877707356156    -0.00119807245410413
122                     122                     106                     100      -0.309681275376463      -0.361801421173598       0.440199668421056
123                     124                     104              105.656854       0.368369212965388       0.464067058021377      -0.438586653691038
124                     124                     104              102.828427      -0.362682999762142      -0.398062463363909   -0.000258286692071757
125                     124                     104                     100        0.36526490473629       0.462095071881396       0.438891964615629
126                     126                     106              105.656854      -0.466110098172061      -0.369603440310364      -0.441609088181392
127                     126                     106              102.828427       0.401096990100519       0.361814671381532     0.00265739500323478
128                     126                     106                     100      -0.465125322938986      -0.363562344411746       0.437391673891307
129                     128                     104              105.656854           0.72792676654       0.462545577660319      -0.330673009732467
130                     128                     104              102.828427      -0.282585652145768      -0.397214414110687    -0.00131297916423793
131                     128                     104                     100       0.727809091830819       0.460047070095049       0.332741140213805
132                     130                     106              105.656854       -1.23644672905517      -0.328465860364766      -0.853606193541922
133                     130                     106              102.828427      -0.458892682091694        0.32401008205569     0.00215179619464595
134                     130                     106                     100       -1.23782909864434       -0.32545748606041         0.8501622646619
135                     100                     108              105.656854        1.06335174113674       0.116927932541575      -0.799923446014311
136                     100                     108              102.828427       0.637945434686402      -0.117145894349687    -0.00258125767172379
137                     100                     108                     100        1.06082085181114        0.11439829661412       0.804096996024242
138                     102                     110              105.656854      -0.590607566761726      -0.156116767431958      -0.379240316475961
139                     102                     110              102.828427       0.139147402060708       0.156672550589829     0.00561624058059325
140                     102                     110                     100      -0.584032852323686       -0.15073189069729       0.370271103576695
141                     104                     108              105.656854       0.338735888987155       0.190296326478301      -0.370923045169354
142                     104                     108              102.828427      -0.267317816035851      -0.188229179966869    -0.00511998632029332
143                     104                     108                     100       0.334883909353245       0.182452225758812       0.379129717518684
144                     106                     110              105.656854      -0.299095562228008      -0.220454112756545      -0.507168474126493
145                     106                     110              102.828427       0.283519928460305       0.211104841023664      0.0119928748320109
146                     106                     110                     100      -0.288607541231282      -0.199725475498026       0.484856129081517
147                     108                     108              105.656854       0.221527822275158        0.25225404019432      -0.358316487158244
148                     108                     108              102.828427      -0.228566732729979      -0.245017647713917    -0.00537573564436603
149                     108                     108                     100       0.227833908147521       0.236157723639476       0.368430666433005
150                     110                     110              105.656854      -0.177893278064892      -0.259594039575981      -0.491768623523027
151                     110                     110              102.828427       0.215036303631635       0.243954811862846     0.00555079727877725
152                     110                     110                     100      -0.221347011769899      -0.232860751795288       0.474825597691507
153                     112                     108              105.656854       0.174019914082332        0.25674126633698      -0.393716667018265
154                     112                     108              102.828427       -0.19724265208967      -0.269567322990895     0.00826556304997412
155                     112                     108                     100       0.200821419696078       0.267481050877078        0.37806853378039
156                     114                     110              105.656854      -0.175979514623318      -0.183905364626184      -0.383365275084533
157                     114                     110              102.828427       0.208073431321198       0.246563229330097     -0.0273580208787509
158                     114                     110                     100      -0.212976719423841      -0.249471610884565       0.469945064691761
159                     116                     108              105.656854       0.219981339426878       0.249175805650149      -0.426445395643274
160                     116                     108              102.828427      -0.225911068410267       -0.28168950255252      0.0196317723273439
161                     116                     108                     100       0.220055171456292       0.286117580369935       0.388733869795665
162                     118                     110              105.656854      -0.286357696326781      -0.195126332102217      -0.366281237294021
163                     118                     110              102.828427       0.266840091704856        0.25791748170967     -0.0274601315194293
164                     118                     110                     100      -0.249425600875961      -0.260448114682664       0.452655243239466
165                     120                     108              105.656854       0.300350412774797       0.289918635442868      -0.428562629251041
166                     120                     108              102.828427      -0.290557593920826      -0.304018293783521     0.00846497039431667
167                     120                     108                     100       0.273987391974487       0.300983897499451       0.412732131948299
168                     122                     110              105.656854      -0.357663913050823      -0.291267490746307       -0.43404517948158
169                     122                     110              102.828427       0.334133062489313       0.278173303103157     0.00486370752507068
170                     122                     110                     100       -0.31515369254445      -0.266255838772769       0.418697339605112
171                     124                     108              105.656854         0.3753327233589       0.320882297087326      -0.431004215219544
172                     124                     108              102.828427      -0.368289206416539      -0.316480823697023    -0.00497682996578112
173                     124                     108                     100        0.36897479427529       0.305602739656161       0.440506307679497
174                     126                     110              105.656854      -0.436933750715585      -0.275300045053697      -0.435224915233869
175                     126                     110              102.828427       0.380234575227858       0.268376838609536      0.0113920974110955
176                     126                     110                     100       -0.44678998103835        -0.2554440388566       0.413897141393188
177                     128                     108              105.656854       0.688005628432491       0.293911128382201      -0.326345329410153
178                     128                     108              102.828427      -0.246564064681709      -0.295426300110615    -0.00486100908572611
179                     128                     108                     100       0.691646883045291       0.286403983878871        0.33416885959362
180                     130                     110              105.656854       -1.17921089911212      -0.228066784760499      -0.839076892270385
181                     130                     110              102.828427      -0.513053852113885       0.231149440074521     0.00534034448969698
182                     130                     110                     100       -1.18550097414466      -0.222946351337829       0.830527908511437
183                     100                     112              105.656854        1.11903559260181       0.138307081089808      -0.806350682005161
184                     100                     112              102.828427       0.582905341937774      -0.140248704936257    -0.00461812588239537
185                     100                     112                     100        1.11307418856412       0.135881208305709       0.813747981396081
186                     102                     114              105.656854      -0.640293499938729       -0.17061347973164      -0.371698201248118
187                     102                     114              102.828427       0.185881364015398       0.173145650384472     0.00911883061375179
188                     102                     114                     100      -0.627038075765334      -0.167750557827207       0.357036469827651
189                     104                     112              105.656854       0.403014145356082       0.188225239575351      -0.374186305179151
190                     104                     112              102.828427      -0.323017161756377      -0.186093494990783     -0.0124914170126258
191                     104                     112                     100       0.385261018331837       0.177783345121089       0.395583147023864
192                     106                     114              105.656854      -0.359223731686085      -0.209708363088801      -0.518965205907819
193                     106                     114              102.828427       0.323020692607074       0.208298381109097       0.024801869986109
194                     106                     114                     100      -0.322873389387301       -0.19982531703599       0.465697726146115
195                     108                     112              105.656854       0.284764592571678       0.260213703111913       -0.30455400240823
196                     108                     112              102.828427      -0.262418564561064      -0.224307650498769     -0.0232125505356933
197                     108                     112                     100       0.261319718275459       0.211343349952393       0.390058644998761
198                     110                     114              105.656854       -0.15276348449772      -0.197779845751638      -0.758184523973574
199                     110                     114              102.828427       0.222844722338685       0.226739210363666      0.0182428373179413
200                     110                     114                     100      -0.239208734629983      -0.220288043061767       0.455579481787044
201                     112                     112              105.656854      0.0917564567254371       0.230764717374657      -0.430066748413347