ITEM: TIMESTEP
0
ITEM: NUMBER OF ATOMS
422
ITEM: BOX BOUNDS ff ff ff
0.0000000000000000e+00 2.3200000000000000e+02
0.0000000000000000e+00 2.3200000000000000e+02
0.0000000000000000e+00 2.3200000000000000e+02
ITEM: ATOMS id xu yu zu fx fy fz
1        113.144918225087        115.982506846926        108.655840031249   -0.000603442141561995   -0.000174840262119098      0.0275089693971197
2        118.868975301582        116.030716703145        108.698344461511      0.0012948057035786    -0.00062833844912104    -0.00995026584578567
3        117.375907372945        115.961357491793        108.630416379028   -0.000866302761526627     0.00256279929495598      0.0620392626275831
4        114.608086595335        116.021966499322        108.693868556386   -0.000534208244994857     0.00183743888102667     -0.0722953891079517
5        116.736684720345        114.785334402739        108.692463552575     0.00140113191371024    -0.00130740449033312      -0.098895483221365
6         115.23479623812        114.708261855965        108.616823247253    -0.00145353538101964    -0.00196611071109928        0.07805655594453
7        115.281656549167        117.232336889527         108.66616868414    0.000128868507947566     4.0011869755978e-05      0.0262684450205986
8        116.655716174977        117.181580580138        108.613980133555     0.00046902687912486    -0.00148242137182341      0.0452730304330956
9        114.470742911157        113.501432231575          108.6098399904    0.000493035230210853    0.000554301521554674      0.0202403311662126
10        117.453257992901        113.544105914055        108.649558510169   -0.000567973840320614   -0.000102265242641303    -0.00878666837309222
11        114.552014833276        118.460496934396        108.696005282503     0.00157600752750364    -0.00134030365406561       -0.08851004311658
12        117.474623269911        118.443263973434        108.675817159255   -0.000862717284841836     0.00168606602361301     -0.0749187136976779
13        113.123429919693        113.558563247354        108.652972659457   -0.000470177355202525   -0.000151606298711293     -0.0143899446652779
14        113.076281969729        118.358387923889        108.610687161615    -0.00262126311940491    0.000686204119125724      0.0720255788568294
15        118.802953143712        113.520177211116        108.608838917544   -0.000957366988363578    -0.00180157781868955      0.0941684693536022
16        118.823258963185        118.387455662269        108.634007191689    7.77355221500784e-05    0.000397805470734064      0.0948970847158798
17        112.404973833847        117.172497939348        108.635031995708     0.00240144666006398    -0.00255987375979529      -0.122445746638257
18        112.427827774923        114.769878531247        108.655452716183    4.97363915285795e-05   -0.000922008206517303      0.0476713396572893
19         119.59070696023         114.82251287581        108.700939763538    -0.00655494250827695    0.000309456241831194      -0.242582606656863
20        119.576301845623        117.233581113554        108.688967870594    -0.00554628664497589    -0.00587300291832338      -0.170595538562386
21        120.947861611972         114.81716167517        108.649580589347      0.0030919578378468     0.00615911165943195       0.543983394937119
22        120.929458629945         117.13495549727        108.633521267694     0.00804801880998209      0.0123309964100935       0.363892087828658
23         111.01936179402        114.813194950351        108.655590120859     0.00171403603702585     0.00279106592947118      -0.154429958620839
24        110.968435826886        117.098465786015        108.607007813741    0.000135846213685984     0.00626410117241822       0.307847154896883
25        121.615844827938        116.021115445316        108.685972367198    0.000633935936829377    -0.00275849388197732      -0.271956173190178
26        110.385128626586        115.979188030779        108.655292052114    -0.00175140279071363    -0.00445174776952111     -0.0534903089048818
27        121.567269342128         118.14399543723        108.614927296304    -0.00101081614640533    -0.00153124577633127      -0.117769220276507
28        121.655121811812        113.839641094807        108.698373525112     0.00230929697833732    -0.00792490285545742      -0.192241547551557
29        110.313576385271        118.128387121839        108.610615634543    -0.00115854904147604    -0.00036034991800334      -0.107420720348326
30        110.322725635654        113.745329562123        108.615358645393   -0.000881493488422261    -0.00145250856971544      0.0538176599308121
31        112.622524858423        112.638112836274        108.679512036181    3.58258053164036e-05    1.48669324533458e-05     0.00119179894931968
32        112.550843035139        119.308222855749        108.614593534539    0.000311539020434547     0.00024760337020973     -0.0183002495349005
33        119.370217099354        112.612167301033        108.646757566402    0.000908317173417423   -0.000692814138418823     -0.0301787571753411
34        119.399497769588        119.383239822834        108.682801562446    0.000604029043099625     0.00082511432891473     -0.0239720430056188
35        114.941394820667        112.548068811679          108.6359622478   -3.28228846372314e-05   -0.000425195753422331     -0.0149266550095488
36        114.949977554702        119.396274592161         108.65140644602    0.000148991735189692     0.00145483539461144        0.03185499278593
37        116.995254256967        112.548287242685        108.634116332946    6.11816170167592e-05   -6.76224910660778e-05     0.00254616492709098
38        117.042023583156        119.434679616209        108.687747125625   -2.14699218563485e-05   -0.000187144283048528        0.01477371207438
39                     100                     100              105.656854                       0                       0                       0
40                     100                     100              102.828427                       0                       0                       0
41                     100                     100                     100                       0                       0                       0
42                     102                     102              105.656854                       0                       0                       0
43                     102                     102              102.828427                       0                       0                       0
44                     102                     102                     100                       0                       0                       0
45                     104                     100              105.656854                       0                       0                       0
46                     104                     100              102.828427                       0                       0                       0
47                     104                     100                     100                       0                       0                       0
48                     106                     102              105.656854                       0                       0                       0
49                     106                     102              102.828427                       0                       0                       0
50                     106                     102                     100                       0                       0                       0
51                     108                     100              105.656854                       0                       0                       0
52                     108                     100              102.828427                       0                       0                       0
53                     108                     100                     100                       0                       0                       0
54                     110                     102              105.656854                       0                       0                       0
55                     110                     102              102.828427                       0                       0                       0
56                     110                     102                     100                       0                       0                       0
57                     112                     100              105.656854                       0                       0                       0
58                     112                     100              102.828427                       0                       0                       0
59                     112                     100                     100                       0                       0                       0
60                     114                     102              105.656854                       0                       0                       0
61                     114                     102              102.828427                       0                       0                       0
62                     114                     102                     100                       0                       0                       0
63                     116                     100              105.656854                       0                       0                       0
64                     116                     100              102.828427                       0                       0                       0
65                     116                     100                     100                       0                       0                       0
66                     118                     102              105.656854                       0                       0                       0
67                     118                     102              102.828427                       0                       0                       0
68                     118                     102                     100                       0                       0                       0
69                     120                     100              105.656854                       0                       0                       0
70                     120                     100              102.828427                       0                       0                       0
71                     120                     100                     100                       0                       0                       0
72                     122                     102              105.656854                       0                       0                       0
73                     122                     102              102.828427                       0                       0                       0
74                     122                     102                     100                       0                       0                       0
75                     124                     100              105.656854                       0                       0                       0
76                     124                     100              102.828427                       0                       0                       0
77                     124                     100                     100                       0                       0                       0
78                     126                     102              105.656854                       0                       0                       0
79                     126                     102              102.828427                       0                       0                       0
80                     126                     102                     100                       0                       0                       0
81                     128                     100              105.656854                       0                       0                       0
82                     128                     100              102.828427                       0                       0                       0
83                     128                     100                     100                       0                       0                       0
84                     130                     102              105.656854                       0                       0                       0
85                     130                     102              102.828427                       0                       0                       0
86                     130                     102                     100                       0                       0                       0
87                     100                     104              105.656854                       0                       0                       0
88                     100                     104              102.828427                       0                       0                       0
89                     100                     104                     100                       0                       0                       0
90                     102                     106              105.656854                       0                       0                       0
91                     102                     106              102.828427                       0                       0                       0
92                     102                     106                     100                       0                       0                       0
93                     104                     104              105.656854                       0                       0                       0
94                     104                     104              102.828427                       0                       0                       0
95                     104                     104                     100                       0                       0                       0
96                     106                     106              105.656854                       0                       0                       0
97                     106                     106              102.828427                       0                       0                       0
98                     106                     106                     100                       0                       0                       0
99                     108                     104              105.656854                       0                       0                       0
100                     108                     104              102.828427                       0                       0                       0
101                     108                     104                     100                       0                       0                       0
102                     110                     106              105.656854                       0                       0                       0
103                     110                     106              102.828427                       0                       0                       0
104                     110                     106                     100                       0                       0                       0
105                     112                     104              105.656854                       0                       0                       0
106                     112                     104              102.828427                       0                       0                       0
107                     112                     104                     100                       0                       0                       0
108                     114                     106              105.656854                       0                       0                       0
109                     114                     106              102.828427                       0                       0                       0
110                     114                     106                     100                       0                       0                       0
111                     116                     104              105.656854                       0                       0                       0
112                     116                     104              102.828427                       0                       0                       0
113                     116                     104                     100                       0                       0                       0
114                     118                     106              105.656854                       0                       0                       0
115                     118                     106              102.828427                       0                       0                       0
116                     118                     106                     100                       0                       0                       0
117                     120                     104              105.656854                       0                       0                       0
118                     120                     104              102.828427                       0                       0                       0
119                     120                     104                     100                       0                       0                       0
120                     122                     106              105.656854                       0                       0                       0
121                     122                     106              102.828427                       0                       0                       0
122                     122                     106                     100                       0                       0                       0
123                     124                     104              105.656854                       0                       0                       0
124                     124                     104              102.828427                       0                       0                       0
125                     124                     104                     100                       0                       0                       0
126                     126                     106              105.656854                       0                       0                       0
127                     126                     106              102.828427                       0                       0                       0
128                     126                     106                     100                       0                       0                       0
129                     128                     104              105.656854                       0                       0                       0
130                     128                     104              102.828427                       0                       0                       0
131                     128                     104                     100                       0                       0                       0
132                     130                     106              105.656854                       0                       0                       0
133                     130                     106              102.828427                       0                       0                       0
134                     130                     106                     100                       0                       0                       0
135                     100                     108              105.656854                       0                       0                       0
136                     100                     108              102.828427                       0                       0                       0
137                     100                     108                     100                       0                       0                       0
138                     102                     110              105.656854                       0                       0                       0
139                     102                     110              102.828427                       0                       0                       0
140                     102                     110                     100                       0                       0                       0
141                     104                     108              105.656854                       0                       0                       0
142                     104                     108              102.828427                       0                       0                       0
143                     104                     108                     100                       0                       0                       0
144                     106                     110              105.656854                       0                       0                       0
145                     106                     110              102.828427                       0                       0                       0
146                     106                     110                     100                       0                       0                       0
147                     108                     108              105.656854                       0                       0                       0
148                     108                     108              102.828427                       0                       0                       0
149                     108                     108                     100                       0                       0                       0
150                     110                     110              105.656854                       0                       0                       0
151                     110                     110              102.828427                       0                       0                       0
152                     110                     110                     100                       0                       0                       0
153                     112                     108              105.656854                       0                       0                       0
154                     112                     108              102.828427                       0                       0                       0
155                     112                     108                     100                       0                       0                       0
156                     114                     110              105.656854                       0                       0                       0
157                     114                     110              102.828427                       0                       0                       0
158                     114                     110                     100                       0                       0                       0
159                     116                     108              105.656854                       0                       0                       0
160                     116                     108              102.828427                       0                       0                       0
161                     116                     108                     100                       0                       0                       0
162                     118                     110              105.656854                       0                       0                       0
163                     118                     110              102.828427                       0                       0                       0
164                     118                     110                     100                       0                       0                       0
165                     120                     108              105.656854                       0                       0                       0
166                     120                     108              102.828427                       0                       0                       0
167                     120                     108                     100                       0                       0                       0
168                     122                     110              105.656854                       0                       0                       0
169                     122                     110              102.828427                       0                       0                       0
170                     122                     110                     100                       0                       0                       0
171                     124                     108              105.656854                       0                       0                       0
172                     124                     108              102.828427                       0                       0                       0
173                     124                     108                     100                       0                       0                       0
174                     126                     110              105.656854                       0                       0                       0
175                     126                     110              102.828427                       0                       0                       0
176                     126                     110                     100                       0                       0                       0
177                     128                     108              105.656854                       0                       0                       0
178                     128                     108              102.828427                       0                       0                       0
179                     128                     108                     100                       0                       0                       0
180                     130                     110              105.656854                       0                       0                       0
181                     130                     110              102.828427                       0                       0                       0
182                     130                     110                     100                       0                       0                       0
183                     100                     112              105.656854                       0                       0                       0
184                     100                     112              102.828427                       0                       0                       0
185                     100                     112                     100                       0                       0                       0
186                     102                     114              105.656854                       0                       0                       0
187                     102                     114              102.828427                       0                       0                       0
188                     102                     114                     100                       0                       0                       0
189                     104                     112              105.656854                       0                       0                       0
190                     104                     112              102.828427                       0                       0                       0
191                     104                     112                     100                       0                       0                       0
192                     106                     114              105.656854                       0                       0                       0
193                     106                     114              102.828427                       0                       0                       0
194                     106                     114                     100                       0                       0                       0
195                     108                     112              105.656854                       0                       0                       0
196                     108                     112              102.828427                       0                       0                       0
197                     108                     112                     100                       0                       0                       0
198                     110                     114              105.656854                       0                       0                       0
199                     110                     114              102.828427                       0                       0                       0
200                     110                     114                     100                       0                       0                       0
201                     112                     112              105.656854                       0                       0                       0