ITEM: TIMESTEP
0
ITEM: NUMBER OF ATOMS
422
ITEM: BOX BOUNDS ff ff ff
0.0000000000000000e+00 2.3200000000000000e+02
0.0000000000000000e+00 2.3200000000000000e+02
0.0000000000000000e+00 2.3200000000000000e+02
ITEM: ATOMS id xu yu zu fx fy fz
1        113.131435064012        115.969023685851        108.642356870173    -0.00769622242605782    -0.00100335990127259       0.257153334586429
2        118.852407070332        116.014148471895        108.681776230261    -0.00163669236096316   -0.000956789422784538      0.0461170492013022
3        117.406346315085        115.991796433933        108.660855321168     0.00630448606752887     0.00499454668098467      -0.176111848452178
4        114.597581818638        116.011461722624        108.683363779689    -0.00396459547395715    -0.00283008336702585      -0.659576310221911
5        116.662946945342        114.711596627736        108.618725777572    -0.00301676540641952     0.00718252896670121       0.518629661678974
6        115.258903457197        114.732369075041        108.640930466329      0.0118799492194699     0.00207514408490558       0.369240968458694
7        115.257458399669        117.208138740029        108.641970534642     0.00493984795442707     0.00525439722297365       0.573792328016397
8        116.697543846896        117.223408252057        108.655807805475    -0.00337176933022805    -0.00915505733805857      -0.343292350610788
9        114.548028200905        113.578717521323        108.687125280147    -0.00584424603167145    -0.00246373871903989      -0.628341385575915
10        117.469450847105        113.560298768259        108.665751364373     -0.0120657692416297     -0.0114071448090109      -0.729982855247562
11        114.530313391498        118.438795492618        108.674303840725    -0.00471949818294692     0.00592113552977694      -0.232993410433435
12        117.410855855929        118.379496559453        108.612049745274     0.00539776217761029     0.00483777951099104       0.414872767899782
13        113.107322629427        113.542455957088        108.636865369191      -0.011340824559382     0.00492740627346754       0.151361685116449
14        113.138993030323        118.421098984484         108.67339822221     0.00494761093179577    -0.00830007690792802      -0.146624467187464
15        118.805551386449        113.522775453853        108.611437160281     0.00576657898069126      0.0146243274387045       0.838531592789275
16        118.827620559327        118.391817258411        108.638368787831     0.00321223914566006       0.022140483210478       0.318933496564051
17        112.427499933268        117.195024038769        108.657558095129     0.00429824259426146    -0.00652282830127424      -0.260661270797643
18        112.386583580847        114.728634337171        108.614208522108     0.00542546142743892     0.00416835899467807       0.252432956568356
19        119.565243727266        114.797049642846        108.675476530574    0.000982188581446483      0.0228928617077267      -0.183614413313831
20        119.591997103561        117.249276371493        108.704663128533     -0.0173672939757034     -0.0330589170035782      -0.658426749927143
21        120.985033998958        114.854334062156        108.686752976334     -0.0117675115605232     -0.0233199338586331      -0.359426028304615
22        120.938987864482        117.144484731807        108.643050502231    -0.00275345662371035    -0.00560799583094252       0.310574271384641
23        111.017195712452        114.811028868784        108.653424039291      0.0138819892299627     0.00347624004887729      0.0108067966786316
24        110.988649758459        117.118679717588        108.627221745314      0.0135650029466212      0.0205857029313775       0.633560914592743
25        121.554693094741         115.95996371212        108.624820634002      0.0306314690689327      0.0191008444589931       0.537780023913784
26         110.41960646436        116.013665868553        108.689769889889      -0.036328169757341     -0.0165111070451939      -0.622139155942362
27        121.649271829186        118.225997924288        108.696929783362   -0.000727753105501272      0.0111824246540826      -0.214869764098003
28        121.643862041852        113.828381324847        108.687113755152    -0.00104265322043164   -0.000687825217699903     -0.0519625413285997
29        110.379431875242        118.194242611811        108.676471124514   -0.000219253611377917     0.00249354791375852     -0.0571690623869416
30        110.348085256556        113.770689183025        108.640718266295      0.0021952531861888    -0.00283964517534176       0.116901876780071
31        112.600349625314        112.615937603165        108.657336803072     0.00207798578109185    -0.00257143801550396     -0.0649198210121592
32        112.560956168671        119.318335989281        108.624706668071    -0.00351543641306485     0.00504296354087187       0.134659602682997
33        119.412256012001        112.654206213681         108.68879647905     0.00607154898115722     -0.0196132671845225      -0.267829626173036
34        119.356742229714         119.34048428296        108.640046022571     0.00311841364402071    -0.00162736506810091      -0.063314130525501
35        114.930862477778        112.537536468791        108.625429904911      0.0061091923472512    -0.00921987527437136       0.193505066324045
36          114.9535446982        119.399841735659        108.654973589518     0.00163531697855133     1.4807899966378e-05      0.0365410884098991
37        116.986530367173        112.539563352891        108.625392443152     -0.0012477483194865    -0.00565728134318978       0.158010929082172
38         116.99292747867        119.385583511724        108.638651021139    -0.00381487964371183     0.00243822871415732      -0.152151219189606
39                     100                     100              105.656854                       0                       0                       0
40                     100                     100              102.828427                       0                       0                       0
41                     100                     100                     100                       0                       0                       0
42                     102                     102              105.656854                       0                       0                       0
43                     102                     102              102.828427                       0                       0                       0
44                     102                     102                     100                       0                       0                       0
45                     104                     100              105.656854                       0                       0                       0
46                     104                     100              102.828427                       0                       0                       0
47                     104                     100                     100                       0                       0                       0
48                     106                     102              105.656854                       0                       0                       0
49                     106                     102              102.828427                       0                       0                       0
50                     106                     102                     100                       0                       0                       0
51                     108                     100              105.656854                       0                       0                       0
52                     108                     100              102.828427                       0                       0                       0
53                     108                     100                     100                       0                       0                       0
54                     110                     102              105.656854                       0                       0                       0
55                     110                     102              102.828427                       0                       0                       0
56                     110                     102                     100                       0                       0                       0
57                     112                     100              105.656854                       0                       0                       0
58                     112                     100              102.828427                       0                       0                       0
59                     112                     100                     100                       0                       0                       0
60                     114                     102              105.656854                       0                       0                       0
61                     114                     102              102.828427                       0                       0                       0
62                     114                     102                     100                       0                       0                       0
63                     116                     100              105.656854                       0                       0                       0
64                     116                     100              102.828427                       0                       0                       0
65                     116                     100                     100                       0                       0                       0
66                     118                     102              105.656854                       0                       0                       0
67                     118                     102              102.828427                       0                       0                       0
68                     118                     102                     100                       0                       0                       0
69                     120                     100              105.656854                       0                       0                       0
70                     120                     100              102.828427                       0                       0                       0
71                     120                     100                     100                       0                       0                       0
72                     122                     102              105.656854                       0                       0                       0
73                     122                     102              102.828427                       0                       0                       0
74                     122                     102                     100                       0                       0                       0
75                     124                     100              105.656854                       0                       0                       0
76                     124                     100              102.828427                       0                       0                       0
77                     124                     100                     100                       0                       0                       0
78                     126                     102              105.656854                       0                       0                       0
79                     126                     102              102.828427                       0                       0                       0
80                     126                     102                     100                       0                       0                       0
81                     128                     100              105.656854                       0                       0                       0
82                     128                     100              102.828427                       0                       0                       0
83                     128                     100                     100                       0                       0                       0
84                     130                     102              105.656854                       0                       0                       0
85                     130                     102              102.828427                       0                       0                       0
86                     130                     102                     100                       0                       0                       0
87                     100                     104              105.656854                       0                       0                       0
88                     100                     104              102.828427                       0                       0                       0
89                     100                     104                     100                       0                       0                       0
90                     102                     106              105.656854                       0                       0                       0
91                     102                     106              102.828427                       0                       0                       0
92                     102                     106                     100                       0                       0                       0
93                     104                     104              105.656854                       0                       0                       0
94                     104                     104              102.828427                       0                       0                       0
95                     104                     104                     100                       0                       0                       0
96                     106                     106              105.656854                       0                       0                       0
97                     106                     106              102.828427                       0                       0                       0
98                     106                     106                     100                       0                       0                       0
99                     108                     104              105.656854                       0                       0                       0
100                     108                     104              102.828427                       0                       0                       0
101                     108                     104                     100                       0                       0                       0
102                     110                     106              105.656854                       0                       0                       0
103                     110                     106              102.828427                       0                       0                       0
104                     110                     106                     100                       0                       0                       0
105                     112                     104              105.656854                       0                       0                       0
106                     112                     104              102.828427                       0                       0                       0
107                     112                     104                     100                       0                       0                       0
108                     114                     106              105.656854                       0                       0                       0
109                     114                     106              102.828427                       0                       0                       0
110                     114                     106                     100                       0                       0                       0
111                     116                     104              105.656854                       0                       0                       0
112                     116                     104              102.828427                       0                       0                       0
113                     116                     104                     100                       0                       0                       0
114                     118                     106              105.656854                       0                       0                       0
115                     118                     106              102.828427                       0                       0                       0
116                     118                     106                     100                       0                       0                       0
117                     120                     104              105.656854                       0                       0                       0
118                     120                     104              102.828427                       0                       0                       0
119                     120                     104                     100                       0                       0                       0
120                     122                     106              105.656854                       0                       0                       0
121                     122                     106              102.828427                       0                       0                       0
122                     122                     106                     100                       0                       0                       0
123                     124                     104              105.656854                       0                       0                       0
124                     124                     104              102.828427                       0                       0                       0
125                     124                     104                     100                       0                       0                       0
126                     126                     106              105.656854                       0                       0                       0
127                     126                     106              102.828427                       0                       0                       0
128                     126                     106                     100                       0                       0                       0
129                     128                     104              105.656854                       0                       0                       0
130                     128                     104              102.828427                       0                       0                       0
131                     128                     104                     100                       0                       0                       0
132                     130                     106              105.656854                       0                       0                       0
133                     130                     106              102.828427                       0                       0                       0
134                     130                     106                     100                       0                       0                       0
135                     100                     108              105.656854                       0                       0                       0
136                     100                     108              102.828427                       0                       0                       0
137                     100                     108                     100                       0                       0                       0
138                     102                     110              105.656854                       0                       0                       0
139                     102                     110              102.828427                       0                       0                       0
140                     102                     110                     100                       0                       0                       0
141                     104                     108              105.656854                       0                       0                       0
142                     104                     108              102.828427                       0                       0                       0
143                     104                     108                     100                       0                       0                       0
144                     106                     110              105.656854                       0                       0                       0
145                     106                     110              102.828427                       0                       0                       0
146                     106                     110                     100                       0                       0                       0
147                     108                     108              105.656854                       0                       0                       0
148                     108                     108              102.828427                       0                       0                       0
149                     108                     108                     100                       0                       0                       0
150                     110                     110              105.656854                       0                       0                       0
151                     110                     110              102.828427                       0                       0                       0
152                     110                     110                     100                       0                       0                       0
153                     112                     108              105.656854                       0                       0                       0
154                     112                     108              102.828427                       0                       0                       0
155                     112                     108                     100                       0                       0                       0
156                     114                     110              105.656854                       0                       0                       0
157                     114                     110              102.828427                       0                       0                       0
158                     114                     110                     100                       0                       0                       0
159                     116                     108              105.656854                       0                       0                       0
160                     116                     108              102.828427                       0                       0                       0
161                     116                     108                     100                       0                       0                       0
162                     118                     110              105.656854                       0                       0                       0
163                     118                     110              102.828427                       0                       0                       0
164                     118                     110                     100                       0                       0                       0
165                     120                     108              105.656854                       0                       0                       0
166                     120                     108              102.828427                       0                       0                       0
167                     120                     108                     100                       0                       0                       0
168                     122                     110              105.656854                       0                       0                       0
169                     122                     110              102.828427                       0                       0                       0
170                     122                     110                     100                       0                       0                       0
171                     124                     108              105.656854                       0                       0                       0
172                     124                     108              102.828427                       0                       0                       0
173                     124                     108                     100                       0                       0                       0
174                     126                     110              105.656854                       0                       0                       0
175                     126                     110              102.828427                       0                       0                       0
176                     126                     110                     100                       0                       0                       0
177                     128                     108              105.656854                       0                       0                       0
178                     128                     108              102.828427                       0                       0                       0
179                     128                     108                     100                       0                       0                       0
180                     130                     110              105.656854                       0                       0                       0
181                     130                     110              102.828427                       0                       0                       0
182                     130                     110                     100                       0                       0                       0
183                     100                     112              105.656854                       0                       0                       0
184                     100                     112              102.828427                       0                       0                       0
185                     100                     112                     100                       0                       0                       0
186                     102                     114              105.656854                       0                       0                       0
187                     102                     114              102.828427                       0                       0                       0
188                     102                     114                     100                       0                       0                       0
189                     104                     112              105.656854                       0                       0                       0
190                     104                     112              102.828427                       0                       0                       0
191                     104                     112                     100                       0                       0                       0
192                     106                     114              105.656854                       0                       0                       0
193                     106                     114              102.828427                       0                       0                       0
194                     106                     114                     100                       0                       0                       0
195                     108                     112              105.656854                       0                       0                       0
196                     108                     112              102.828427                       0                       0                       0
197                     108                     112                     100                       0                       0                       0
198                     110                     114              105.656854                       0                       0                       0
199                     110                     114              102.828427                       0                       0                       0
200                     110                     114                     100                       0                       0                       0
201                     112                     112              105.656854                       0                       0                       0