   30
Geometry Step: 44
    N     -4.85373042     -0.25296560     -0.44881615      5.11895709
    C     -3.51168918     -0.46635080     -0.34758323      3.86107234
    C     -2.94374491      0.80607762     -0.17592605      3.98535250
    N     -3.93113677      1.75890367     -0.17519878      5.27135802
    C     -5.03414060      1.09872600     -0.33735052      3.89609068
    C     -1.54019809      0.86403233     -0.04461843      3.83028967
    N     -0.87722521     -0.30295559     -0.09546733      5.29271192
    C     -1.53602942     -1.44560881     -0.26240451      3.85843580
    N     -2.83235568     -1.61604719     -0.39512770      5.29539975
    H      0.15790254      1.98422068      0.20683225      0.75634688
    N     -0.86060407      1.99563126      0.12431723      5.25122928
    H     -5.55713453     -0.96005696     -0.57923751      0.82168435
    H     -6.00422940      1.55321359     -0.38219456      0.95586860
    H     -1.37283894      2.85871726      0.15646649      0.80662103
    H     -0.92076378     -2.33477360     -0.29091582      0.93445013
    C      3.95662424      0.57411455      0.38023974      4.03650585
    C      4.48460500     -0.66261595      0.31531153      3.97520341
    N      3.70405398     -1.77070444      0.15714009      5.14323848
    C      2.32507475     -1.71397626      0.05029363      3.66950938
    N      1.80465770     -0.45289518      0.11847516      5.20696950
    C      2.50691372      0.71544299      0.27741729      3.72371162
    O      1.65987803     -2.71263985     -0.09094656      6.44538556
    C      4.76635586      1.81738636      0.55171716      4.10735694
    O      1.92541703      1.79100221      0.32608716      6.44580391
    H      5.54881038     -0.83757349      0.38504528      0.94229796
    H      4.11699946     -2.69101603      0.11067903      0.80002008
    H      0.74188323     -0.38463320      0.03694902      0.74740195
    H      5.82575139      1.58726374      0.61844888      0.95535057
    H      4.59277919      2.48890521     -0.28753739      0.93275809
    H      4.45087490      2.34131842      1.45244261      0.93261868
