ITEM: TIMESTEP
0
ITEM: NUMBER OF ATOMS
422
ITEM: BOX BOUNDS ff ff ff
0.0000000000000000e+00 2.3200000000000000e+02
0.0000000000000000e+00 2.3200000000000000e+02
0.0000000000000000e+00 2.3200000000000000e+02
ITEM: ATOMS id xu yu zu fx fy fz
1        113.145932193839        117.783520815677              108.656854     -0.0386906592158818     -0.0120012998731089       0.120432623061559
2        118.827484840071        117.789226241634              108.656854      0.0358908607496952     -0.0119464833943586       0.124840630607568
3        117.402344993917        117.787795112765              108.656854     -0.0312150451825652    -0.00907692278303797       0.151166927849664
4        114.571072038949        117.784951942936              108.656854      0.0361116828928124    -0.00939240558179693        0.15469390685665
5        116.701075167769        116.549724850164              108.656854    -0.00270600475549265    -0.00217112934594432      0.0116129333812864
6        115.274826990867        116.548292608712              108.656854       0.010539040347879    -0.00249538247512479      0.0123951527198908
7        115.272341865028        119.023022205388              108.656854      0.0191988348076934       0.014743724118287      0.0283479290937776
8        116.698590041422        119.024454446583              108.656854     -0.0112312986394764      0.0139868789316798      0.0264687642673228
9        114.517756920757        115.348446241175              108.656854      0.0115923334347559      0.0261771303978144      0.0464734499365361
10        117.460553482731        115.351401403886              108.656854     -0.0302976610908939      0.0257761586796294      0.0462247021752849
11        114.512863550773        120.221345651893              108.656854     0.00660575958556815     -0.0248630532305631       0.018120811874748
12        117.455660110655        120.224300814179              108.656854     -0.0243875497662649     -0.0243403753140564      0.0183549198472563
13        113.127311260236        115.362444587898              108.656854    -0.00515295862930949      0.0163010150998734      0.0266773937873281
14        113.122448808114        120.204554762274              108.656854     0.00132325389790335     -0.0168654459279226     0.00641877742961415
15        118.850968226168        115.368192293572              108.656854     -0.0109053293088074      0.0167219961768485      0.0291910750171206
16        118.846105771496         120.21030247058              108.656854     -0.0163817065860388     -0.0165779155046596     0.00922430797376727
17        112.426795838139         118.99431994364              108.656854    -0.00550623458213369      0.0133485077109466      0.0161113989711964
18         112.42922905874        116.571279815063              108.656854    0.000295152734083604    -0.00122421135772599     0.00803622283552975
19        119.546621196692        116.578427112272              108.656854     0.00986026269746538    -0.00178796410073234      0.0071580824999953
20        119.544187975028         119.00146724296              108.656854      0.0155958461001956        0.01328198564102      0.0156595237897772
21        120.955135022624        116.624435085822              108.656854       0.143990339432679       0.160302807435725       0.028884097164681
22        120.952791362251        118.958288229576              108.656854        0.13045474588494     -0.0616059564527301      0.0253030767054485
23        111.020625673161        116.614458829493              108.656854     -0.0269703710940801       0.163593220279882      0.0514200261674136
24        111.018282013145        118.948311972274              108.656854     -0.0153222995024881     -0.0530319565385141      0.0483085161656482
25        121.586726460739        117.791997078118              108.656854     -0.0663750556890635     -0.0393907773120816       0.117192433442824
26        110.386690574472        117.780749978664              108.656854    0.000413382914405675     -0.0437470501045591       0.104112187669529
27        121.609196045824        119.985922140926              108.656854      -0.160132681510047     -0.0647869843498502      0.0217226900844397
28          121.6136022867        115.598121569695              108.656854       -0.16878342179837     -0.0183969822164232      0.0259985091451929
29        110.359814750727        119.974625487296              108.656854      0.0165424666574512     -0.0767321035465979    -0.00827777697380807
30         110.36422099026         115.58682491673              108.656854      0.0191891634518222     -0.0206725838082084    -0.00520672223931335
31        112.599866822243        114.415454800093              108.656854     -0.0179424351490258     0.00502831708298205    -0.00592965190413521
32        112.593103500599        121.150483321209              108.656854     -0.0172203551147111      0.0448036837869845    -0.00533332207262827
33        119.380313532952        114.422263734631              108.656854      0.0605208400851245     0.00487146096968809     -0.0117134296238774
34        119.373550207142        121.157292260389              108.656854      0.0565193685856304      0.0418449444537202     -0.0111002079781624
35        114.962286572867         114.36896056388              108.656854     0.00811774140850425     0.00378414366894357    -0.00717280726800816
36        114.955425108682        121.201722146141              108.656854     0.00613164842626087      0.0282099878721801    -0.00973611853494938
37        117.017991924022        114.371024909739              108.656854      0.0187077026307061     0.00369035498979266    -0.00826401805241458
38        117.011130457531        121.203786490585              108.656854      0.0186697929273754      0.0277383896677686     -0.0106032384719384
39                     100                     100              105.656854       0.212125599101743       0.213599532428444      -0.975778837669729
40                     100                     100              102.828427       0.432022670523302       0.430717514383731   -0.000230476380786594
41                     100                     100                     100       0.212164850850208        0.21324889822914       0.976171663682081
42                     102                     102              105.656854       -0.34443301027452      -0.346860423117386      -0.277760928239021
43                     102                     102              102.828427     -0.0508857541595212     -0.0488169875941405    0.000392334539492094
44                     102                     102                     100      -0.344550251217845      -0.346180764344362       0.277115125822529
45                     104                     100              105.656854      0.0960415175814633       0.959577478698596       -0.80905490852471
46                     104                     100              102.828427     -0.0639974284105339        0.72704620714102   -0.000117293815845113
47                     104                     100                     100      0.0963480172403984       0.959239789866278       0.809234071582586
48                     106                     102              105.656854      -0.149771853532838      -0.514013339704403      -0.381225469464381
49                     106                     102              102.828427       0.142757188073085      0.0659795688562734    0.000100284582084021
50                     106                     102                     100       -0.15051841816399      -0.513479426538965       0.381103743705819
51                     108                     100              105.656854       0.110355537861982        1.05989563095391      -0.801914879456707
52                     108                     100              102.828427      -0.112162226679402       0.639988543679565    0.000246829941911944
53                     108                     100                     100       0.111020103551581        1.05998246853399       0.801462394406461
54                     110                     102              105.656854       -0.14485302379176       -0.58201882079193      -0.373994706120396
55                     110                     102              102.828427       0.149099256868548       0.134913707118672   -0.000728030502556591
56                     110                     102                     100      -0.146219598690588      -0.582680177381709        0.37525814527784
57                     112                     100              105.656854       0.132601489678686        1.10923390430997      -0.810397448457537
58                     112                     100              102.828427      -0.136130969566579       0.588907181153806      0.0007798519323264
59                     112                     100                     100       0.133254640592941        1.11016421895237       0.809048780318448
60                     114                     102              105.656854      -0.164897183815719      -0.620997609410037      -0.362201328150445
61                     114                     102              102.828427       0.169455652920184       0.176105290251574    -0.00163318692908055
62                     114                     102                     100      -0.165667328344608      -0.623290220061144       0.364944500331916
63                     116                     100              105.656854       0.166587383105851        1.14538242924877      -0.820772328563696
64                     116                     100              102.828427      -0.170771003573888       0.551310368124186     0.00105405144178674
65                     116                     100                     100       0.166586896528244        1.14679472409711        0.81896830452065
66                     118                     102              105.656854      -0.208396966083305       -0.65319186955601      -0.348767500756995
67                     118                     102              102.828427       0.213631292694475       0.209348867188872    -0.00163219251036466
68                     118                     102                     100      -0.207625050781086      -0.655481572500545       0.351509075753026
69                     120                     100              105.656854       0.222277961025963        1.18331439559482      -0.834965766433637
70                     120                     100              102.828427      -0.227957217114677       0.512401618597183    0.000779567679971541
71                     120                     100                     100       0.221625451159837        1.18424344006642       0.833617556230503
72                     122                     102              105.656854      -0.287004652082972      -0.688185510451619       -0.33046518190862
73                     122                     102              102.828427       0.292337483949008        0.24447546840293    -0.00072785519327907
74                     122                     102                     100      -0.285641683045797      -0.688845324761341       0.331728295070099
75                     124                     100              105.656854       0.325524556783901        1.23653793557939      -0.852112619024272
76                     124                     100              102.828427      -0.322353732373865       0.459605105506392     0.00024770956490271
77                     124                     100                     100       0.324861988783006        1.23662567285484       0.851658701419498
78                     126                     102              105.656854      -0.460992268472501      -0.726813728725957      -0.331795933055654
79                     126                     102              102.828427       0.396658696211752       0.281156011698167    9.75336999925645e-05
80                     126                     102                     100      -0.460248699357603      -0.726284093969446       0.331678598091319
81                     128                     100              105.656854       0.707989712235944        1.34022532875153      -0.754854011152078
82                     128                     100              102.828427      -0.280673880916291       0.396426890303668   -0.000115248352097405
83                     128                     100                     100       0.707684087022738           1.33989044069       0.755029779559405
84                     130                     102              105.656854       -1.34065236006021      -0.708035783093245       -0.75520368251031
85                     130                     102              102.828427      -0.395875722214436       0.280527086805479    0.000388638263988637
86                     130                     102                     100       -1.34053489289342      -0.707361216078102       0.754563951116661
87                     100                     104              105.656854       0.958659879993705      0.0993734183451292      -0.808690341047869
88                     100                     104              102.828427       0.727931929769513      -0.066766933363988   -0.000677714758415296
89                     100                     104                     100       0.958431484370835      0.0984563651455166       0.809822736276846
90                     102                     106              105.656854       -0.51281500470296       -0.15575191876597      -0.382106228829648
91                     102                     106              102.828427      0.0647439819761327        0.14738353814368     0.00133651350703659
92                     102                     106                     100      -0.512327484226545      -0.153737848462458       0.379945821778939
93                     104                     104              105.656854       0.247123642882447       0.251404862818424       -0.38903552164984
94                     104                     104              102.828427      -0.180065922599407       -0.18350366013978   -0.000690121725685665
95                     104                     104                     100       0.247497722544973       0.250008449887769       0.390127727348847
96                     106                     106              105.656854      -0.233268124374587      -0.241500466926275      -0.503162780003756
97                     106                     106              102.828427       0.225722667447107       0.231711919302523     0.00121305340189533
98                     106                     106                     100      -0.234582598027201      -0.238488910150934       0.501294195148953
99                     108                     104              105.656854       0.174897720876339       0.337005888045319      -0.375666262337879
100                     108                     104              102.828427      -0.178404633673242      -0.267906836926706    0.000129194240774658
101                     108                     104                     100       0.176834329076501       0.336363950665559       0.375369233519701
102                     110                     106              105.656854       -0.18703518940076      -0.291093570971148       -0.48971026453463
103                     110                     106              102.828427       0.194929401640017       0.284759495773907    -0.00124530615025967
104                     110                     106                     100      -0.192185805284294      -0.291511201182144       0.491849051314246
105                     112                     104              105.656854       0.170061913970501       0.381109010095371      -0.389921807330127
106                     112                     104              102.828427       -0.17595930097352      -0.315319470144471     0.00200994143201679
107                     112                     104                     100        0.17264477174968       0.383751503714442       0.386570870498857
108                     114                     106              105.656854      -0.192394865615258       -0.31469190840561      -0.471329875795367
109                     114                     106              102.828427       0.199560997510753       0.314207782075613    -0.00509834895975793
110                     114                     106                     100      -0.195951068893843      -0.322990636900534       0.479732321322381
111                     116                     104              105.656854       0.198191947234796         0.4098248609245      -0.404287345770745
112                     116                     104              102.828427      -0.203399153254347      -0.346346941050612     0.00314945398912124
113                     116                     104                     100        0.19818748803006       0.414745065985378       0.399105429788564
114                     118                     106              105.656854       -0.23682120233988      -0.336907948685363      -0.455427462795769
115                     118                     106              102.828427       0.241259284592575       0.337110524229086    -0.00509022600183347
116                     118                     106                     100      -0.233249803554683       -0.34518399821649       0.463816314842535
117                     120                     104              105.656854       0.257354038752662       0.437769456797631      -0.420646310840934
118                     120                     104              102.828427      -0.263034435987688      -0.373821953675298     0.00200648468541273
119                     120                     104                     100       0.254773770844863       0.440402138914751       0.417300986239205
120                     122                     106              105.656854      -0.313218453082859      -0.361071807105192      -0.437935818195029
121                     122                     106              102.828427       0.317018539143143       0.357011945520111    -0.00124158069089471
122                     122                     106                     100      -0.308090513647679      -0.361479173678032       0.440068396904473
123                     124                     104              105.656854       0.366345617878775       0.462307676013008       -0.43898808577198
124                     124                     104              102.828427      -0.361267296821949      -0.397113544223492    0.000131574666805149
125                     124                     104                     100       0.364418125157167       0.461669717991675       0.438687413874426
126                     126                     106              105.656854      -0.465968519475189      -0.365799357195127       -0.44008278869417
127                     126                     106              102.828427       0.400619423343009        0.35994733408877     0.00120235133653442
128                     126                     106                     100       -0.46466320790096      -0.362809358786777       0.438231168165576
129                     128                     104              105.656854       0.728046957049623       0.460901641871217      -0.331178858242266
130                     128                     104              102.828427      -0.282532245717322      -0.396188776177427   -0.000683671407522255
131                     128                     104                     100       0.727674136518785       0.459515731988676       0.332260831250664
132                     130                     106              105.656854        -1.2375741249744      -0.327010757825508      -0.852945437762511
133                     130                     106              102.828427      -0.458290456150805       0.323120826128527     0.00132552557488469
134                     130                     106                     100       -1.23805658708177      -0.325012563182038       0.850802456549415
135                     100                     108              105.656854        1.06166196046432        0.11607726150687      -0.800527854970546
136                     100                     108              102.828427       0.638999061746803      -0.116598785746487    -0.00174519473069845
137                     100                     108                     100        1.06029281144607       0.114107113845919       0.803382152960067
138                     102                     110              105.656854      -0.586851136195699      -0.154990376547073      -0.377564004891805
139                     102                     110              102.828427       0.137288301647491       0.156129945310926     0.00375978014901217
140                     102                     110                     100      -0.583328476987781      -0.150531463077809       0.371543259421531
141                     104                     108              105.656854       0.335723593777556       0.186553402667304      -0.373200026555362
142                     104                     108              102.828427      -0.266171766348572      -0.186392762082526    -0.00283837385174165
143                     104                     108                     100       0.334653312253846       0.181698702075579       0.377708928334852
144                     106                     110              105.656854      -0.290816703411751      -0.211910473791337      -0.498057828557435
145                     106                     110              102.828427       0.282078478942366       0.208614563046135     0.00635718387641103
146                     106                     110                     100      -0.288760991039589      -0.199042775181481       0.487216666556808
147                     108                     108              105.656854       0.224029513392142       0.241546712381015      -0.363976637493143
148                     108                     108              102.828427      -0.230839334833984      -0.241558025299293    -0.00183541336754365
149                     108                     108                     100       0.229181017990082        0.23510499580746       0.366990823960545
150                     110                     110              105.656854      -0.202143963234764       -0.24100297737103      -0.477444869634839
151                     110                     110              102.828427       0.222417020419195       0.240472604576075    0.000488345621942359
152                     110                     110                     100      -0.223993882377224      -0.232043850974127       0.475880493352477
153                     112                     108              105.656854       0.191021573817414       0.259789340174713      -0.388672710757951
154                     112                     108              102.828427      -0.204050242884184      -0.269954784202858     0.00548904542341322
155                     112                     108                     100       0.203331734530899        0.26734530155552       0.379284202833309
156                     114                     110              105.656854      -0.196638277551318      -0.214312969882409      -0.430632542412157
157                     114                     110              102.828427       0.214577396913772       0.247617534886255     -0.0170982230838859
158                     114                     110                     100      -0.215015370704025      -0.249185278215748       0.466654736770278
159                     116                     108              105.656854       0.220216240284831       0.266997857669448      -0.410909381153435
160                     116                     108              102.828427      -0.226095186374134      -0.285973119369609      0.0109681100249433
161                     116                     108                     100        0.22018118272841       0.286827555711104       0.392114773242291
162                     118                     110              105.656854      -0.266174614410496      -0.225450940893537      -0.413401211938523
163                     118                     110              102.828427       0.260804061788284       0.258955459773033     -0.0170435491966715
164                     118                     110                     100      -0.247667402611562      -0.260152808170705       0.449289104514554
165                     120                     108              105.656854       0.284009715962024       0.293449728553625      -0.423437810690617
166                     120                     108              102.828427       -0.28414930339352      -0.304618476982805     0.00546256112975583
167                     120                     108                     100       0.271721116212222       0.300931315365388       0.414097267108818
168                     122                     110              105.656854      -0.334421257038905      -0.274550602571648      -0.421060661533271
169                     122                     110              102.828427       0.327206573586812       0.275032911871254    0.000511590046536133
170                     122                     110                     100      -0.312767503681466      -0.265531208523172       0.419456085433661
171                     124                     108              105.656854       0.372850521167823       0.311137415139794      -0.436327252087336
172                     124                     108              102.828427      -0.366126399447133      -0.313445093846579     -0.0018236491920789
173                     124                     108                     100       0.367745998120832       0.304730676800369       0.439318271037147
174                     126                     110              105.656854      -0.444623007547006      -0.267705042497165       -0.42665953836078
175                     126                     110              102.828427       0.381565159735262       0.266313714041991     0.00630840549766268
176                     126                     110                     100      -0.446675859070297      -0.254947546463353       0.415915867968986
177                     128                     108              105.656854       0.690792356678617       0.290644720845766      -0.328484716459123
178                     128                     108              102.828427      -0.247601880413488      -0.293903567223569    -0.00281500837608641
179                     128                     108                     100       0.691853678375002       0.285830511492041       0.332956028400235
180                     130                     110              105.656854       -1.18262762227464      -0.227324235757823      -0.837547451276303
181                     130                     110              102.828427      -0.511396817832555        0.23086972975348     0.00372890420281099
182                     130                     110                     100       -1.18611809434211      -0.222902925987047       0.831576036374775
183                     100                     112              105.656854        1.11654935558831       0.138842943606271      -0.807129954320767
184                     100                     112              102.828427       0.584381579102868      -0.140648396837363    -0.00360007174746924
185                     100                     112                     100        1.11236269797171       0.136143499535288       0.812940963038105
186                     102                     114              105.656854      -0.636528337048723      -0.173154104001123       -0.37023615334605
187                     102                     114              102.828427       0.184029522248356       0.174651270229079     0.00751852942235733
188                     102                     114                     100      -0.626311776506856      -0.168518837278653       0.358092504593608
189                     104                     112              105.656854       0.394480362938548       0.188442077101932       -0.37921850015814
190                     104                     112              102.828427      -0.320219615001535      -0.186432419902268    -0.00859752564203568
191                     104                     112                     100       0.384574440047041       0.178002362284206       0.393594938070071
192                     106                     114              105.656854       -0.34893937137154      -0.221043486200135      -0.508379357865509
193                     106                     114              102.828427       0.320957066756135       0.211480436049277       0.019043153630101
194                     106                     114                     100       -0.32267525014119      -0.200779750203993       0.467918925961456
195                     108                     112              105.656854       0.262200373112028       0.247726256892276      -0.352978983253404
196                     108                     112              102.828427      -0.263676087862672      -0.224023557522535     -0.0129983672054354
197                     108                     112                     100       0.262494867176783       0.211202669229611       0.387321579268945
198                     110                     114              105.656854      -0.160357673061153      -0.269831443165312      -0.565125492731952
199                     110                     114              102.828427       0.229445061406866       0.229988787426634      0.0135028323162649
200                     110                     114                     100      -0.241102701263056       -0.22023907460529        0.45684729802756
201                     112                     112              105.656854       0.154329077697135       0.217962356270264      -0.425491560055514