ITEM: TIMESTEP
0
ITEM: NUMBER OF ATOMS
422
ITEM: BOX BOUNDS pp pp pp
0.0000000000000000e+00 3.2000000000000000e+01
0.0000000000000000e+00 3.2000000000000000e+01
0.0000000000000000e+00 3.2000000000000000e+01
ITEM: ATOMS id xu yu zu fx fy fz
1        13.1698472006834        16.0074358225221        8.68076500684484       -4.84135972005515       -5.23806610564923       -1.11087932849441
2        18.8188351168913        15.9805765184546        8.64820027682017    -0.00378896957247189       0.836293682813422       0.142774505683225
3        17.3605487721331        15.9459988909811         8.6150537782161        2.61958695409753        2.80252847003119       0.594579613062225
4        14.5600484493089        15.9739283532957         8.6458264103599        1.16713001491526        0.26372335231763       0.186245229251786
5         16.661664582088        14.7103142644825         8.6174394143188        2.04942291729789        2.25730980724121       0.461912126454695
6        15.2462342919761        14.7196999098206        8.62825730110869      -0.998707530614697      -0.724549848969738      -0.188562289155257
7        15.2616036432625        17.2122839836227        8.64611177823497       0.207630005514059      -0.397289253713291     -0.0332088660264743
8        16.7142873413846        17.2401517465456        8.67254729996304       -2.56497827118722       -2.26953609916917      -0.741675617710018
9        14.4724787585077        13.5031680789254        8.61157183775027       0.924745784247219        2.07970410950409       0.265940625158563
10        17.4930959034462        13.5839438246009         8.6893924207149       -4.67437193449622       -4.60754399676766      -0.818019169682022
11        14.4651369537838        18.3736190549039        8.60912340301086        5.04143235224889        3.70858570261654       0.507400117274437
12        17.4726030794177        18.4412437829414        8.67379296876247     -0.0734877319360525      -0.115978763708387      0.0685471934285124
13        13.0798300119156        13.5149633395774        8.60936875167985        2.37425615837961        3.07589289745721      0.0582262832095879
14         13.166701003945        18.4488069581056         8.7011021958313       -5.57833734598782       -4.54788708677466      -0.724435312505494
15         18.830219782434         13.547443849838        8.63610155626592        4.51896278626092        4.17956042126316       0.761986562960088
16         18.858967085794        18.4231637848782        8.66971131429778      -0.193518649764175      -0.562002266850574     -0.0949681584445256
17        12.4166494432345        17.1841735487355        8.64670360509556        3.38589198491418        4.71252240392475        1.12286994751559
18         12.388433440526        14.7304841968499        8.61605438178646         1.9691916437216          2.340693389604        0.37429350426472
19        19.5869923160544        14.8187982316342        8.69722111936215       -3.50913964606541       -4.10956740603404      -0.669776387231153
20        19.5399465094527         17.197225777384         8.6526085344244      -0.676010820757805       0.163034990404307     -0.0378168909389556
21        20.9911087698351        14.8604088330334        8.69282374721106       -2.98735793348739       -4.43969449699648      -0.514153412949785
22        20.9377658346717        17.1432627019968        8.64182447242096        1.56046480705505         1.8029560918295       0.299922903542775
23        10.9774088103661        14.7712419666976        8.61363313720501        2.17218697535563        2.90113329959836       0.345942308073281
24        11.0326311631822        17.1626611223104        8.67119915003678       -3.39996423973106       -4.60043027536472      -0.841293589614937
25        21.5856033886122        15.9908740059904        8.65572692787267        2.07815481993045        1.42022810941363      0.0028203718472779
26        10.3697700975029        15.9638295016957        8.63992952303128        1.18667348280709       0.874518654698946       0.211640818909097
27        21.6039230746392        18.1806491697415        8.65157702881514      -0.624178517084599      -0.707585888232929      -0.116046734906744
28        21.5905797033385        13.7750989863331        8.63382741663839       0.855638163369904         2.2469762869595       0.298089038436698
29        10.3315397035981         18.146350440167        8.62857495287068         1.0374859203142        1.60533889933412       0.250983195395567
30        10.3412603350569        13.7638642615261        8.63388934479639       -1.49588850110867        -1.3832761189266      -0.139707116671386
31        12.6422758163262        12.6578637941769        8.69925899408355       -2.06018258158546       -3.06237566715777      0.0158915899963736
32        12.6279612009685        19.3853410215784        8.69170770036918       0.268521243978765       0.297421866835976      0.0947686090437304
33        19.3715853473369        12.6135355490164        8.64812181438505       -0.26077279339828      -0.287948307459665     -0.0671372998524406
34        19.3874646796993        19.3712067329458        8.67076447255688      0.0555802573951076     -0.0798917059759647       0.005500697866735
35        14.9811243625165        12.5877983535291        8.67568778964957      -0.376932348924259       -1.06226467273106     -0.0896405459599815
36        14.9236520611502        19.3699490986091        8.62507695246824     0.00223378813610078       -0.64656092737006      -0.166214086888821
37        17.0116456158612         12.564678601579        8.65050369183969        1.07454982876204        1.33148360010628         0.2472408298789
38        17.0302567369576        19.4229127700111        8.67597627942656      -0.230762352944761     -0.0574571481018165      0.0359587357785363
39                       0                       0                5.656854                       0                       0                       0
40                       0                       0                2.828427                       0                       0                       0
41                       0                       0                       0                       0                       0                       0
42                       2                       2                5.656854                       0                       0                       0
43                       2                       2                2.828427                       0                       0                       0
44                       2                       2                       0                       0                       0                       0
45                       4                       0                5.656854                       0                       0                       0
46                       4                       0                2.828427                       0                       0                       0
47                       4                       0                       0                       0                       0                       0
48                       6                       2                5.656854                       0                       0                       0
49                       6                       2                2.828427                       0                       0                       0
50                       6                       2                       0                       0                       0                       0
51                       8                       0                5.656854                       0                       0                       0
52                       8                       0                2.828427                       0                       0                       0
53                       8                       0                       0                       0                       0                       0
54                      10                       2                5.656854                       0                       0                       0
55                      10                       2                2.828427                       0                       0                       0
56                      10                       2                       0                       0                       0                       0
57                      12                       0                5.656854                       0                       0                       0
58                      12                       0                2.828427                       0                       0                       0
59                      12                       0                       0                       0                       0                       0
60                      14                       2                5.656854                       0                       0                       0
61                      14                       2                2.828427                       0                       0                       0
62                      14                       2                       0                       0                       0                       0
63                      16                       0                5.656854                       0                       0                       0
64                      16                       0                2.828427                       0                       0                       0
65                      16                       0                       0                       0                       0                       0
66                      18                       2                5.656854                       0                       0                       0
67                      18                       2                2.828427                       0                       0                       0
68                      18                       2                       0                       0                       0                       0
69                      20                       0                5.656854                       0                       0                       0
70                      20                       0                2.828427                       0                       0                       0
71                      20                       0                       0                       0                       0                       0
72                      22                       2                5.656854                       0                       0                       0
73                      22                       2                2.828427                       0                       0                       0
74                      22                       2                       0                       0                       0                       0
75                      24                       0                5.656854                       0                       0                       0
76                      24                       0                2.828427                       0                       0                       0
77                      24                       0                       0                       0                       0                       0
78                      26                       2                5.656854                       0                       0                       0
79                      26                       2                2.828427                       0                       0                       0
80                      26                       2                       0                       0                       0                       0
81                      28                       0                5.656854                       0                       0                       0
82                      28                       0                2.828427                       0                       0                       0
83                      28                       0                       0                       0                       0                       0
84                      30                       2                5.656854                       0                       0                       0
85                      30                       2                2.828427                       0                       0                       0
86                      30                       2                       0                       0                       0                       0
87                       0                       4                5.656854                       0                       0                       0
88                       0                       4                2.828427                       0                       0                       0
89                       0                       4                       0                       0                       0                       0
90                       2                       6                5.656854                       0                       0                       0
91                       2                       6                2.828427                       0                       0                       0
92                       2                       6                       0                       0                       0                       0
93                       4                       4                5.656854                       0                       0                       0
94                       4                       4                2.828427                       0                       0                       0
95                       4                       4                       0                       0                       0                       0
96                       6                       6                5.656854                       0                       0                       0
97                       6                       6                2.828427                       0                       0                       0
98                       6                       6                       0                       0                       0                       0
99                       8                       4                5.656854                       0                       0                       0
100                       8                       4                2.828427                       0                       0                       0
101                       8                       4                       0                       0                       0                       0
102                      10                       6                5.656854                       0                       0                       0
103                      10                       6                2.828427                       0                       0                       0
104                      10                       6                       0                       0                       0                       0
105                      12                       4                5.656854                       0                       0                       0
106                      12                       4                2.828427                       0                       0                       0
107                      12                       4                       0                       0                       0                       0
108                      14                       6                5.656854                       0                       0                       0
109                      14                       6                2.828427                       0                       0                       0
110                      14                       6                       0                       0                       0                       0
111                      16                       4                5.656854                       0                       0                       0
112                      16                       4                2.828427                       0                       0                       0
113                      16                       4                       0                       0                       0                       0
114                      18                       6                5.656854                       0                       0                       0
115                      18                       6                2.828427                       0                       0                       0
116                      18                       6                       0                       0                       0                       0
117                      20                       4                5.656854                       0                       0                       0
118                      20                       4                2.828427                       0                       0                       0
119                      20                       4                       0                       0                       0                       0
120                      22                       6                5.656854                       0                       0                       0
121                      22                       6                2.828427                       0                       0                       0
122                      22                       6                       0                       0                       0                       0
123                      24                       4                5.656854                       0                       0                       0
124                      24                       4                2.828427                       0                       0                       0
125                      24                       4                       0                       0                       0                       0
126                      26                       6                5.656854                       0                       0                       0
127                      26                       6                2.828427                       0                       0                       0
128                      26                       6                       0                       0                       0                       0
129                      28                       4                5.656854                       0                       0                       0
130                      28                       4                2.828427                       0                       0                       0
131                      28                       4                       0                       0                       0                       0
132                      30                       6                5.656854                       0                       0                       0
133                      30                       6                2.828427                       0                       0                       0
134                      30                       6                       0                       0                       0                       0
135                       0                       8                5.656854                       0                       0                       0
136                       0                       8                2.828427                       0                       0                       0
137                       0                       8                       0                       0                       0                       0
138                       2                      10                5.656854                       0                       0                       0
139                       2                      10                2.828427                       0                       0                       0
140                       2                      10                       0                       0                       0                       0
141                       4                       8                5.656854                       0                       0                       0
142                       4                       8                2.828427                       0                       0                       0
143                       4                       8                       0                       0                       0                       0
144                       6                      10                5.656854                       0                       0                       0
145                       6                      10                2.828427                       0                       0                       0
146                       6                      10                       0                       0                       0                       0
147                       8                       8                5.656854                       0                       0                       0
148                       8                       8                2.828427                       0                       0                       0
149                       8                       8                       0                       0                       0                       0
150                      10                      10                5.656854                       0                       0                       0
151                      10                      10                2.828427                       0                       0                       0
152                      10                      10                       0                       0                       0                       0
153                      12                       8                5.656854                       0                       0                       0
154                      12                       8                2.828427                       0                       0                       0
155                      12                       8                       0                       0                       0                       0
156                      14                      10                5.656854                       0                       0                       0
157                      14                      10                2.828427                       0                       0                       0
158                      14                      10                       0                       0                       0                       0
159                      16                       8                5.656854                       0                       0                       0
160                      16                       8                2.828427                       0                       0                       0
161                      16                       8                       0                       0                       0                       0
162                      18                      10                5.656854                       0                       0                       0
163                      18                      10                2.828427                       0                       0                       0
164                      18                      10                       0                       0                       0                       0
165                      20                       8                5.656854                       0                       0                       0
166                      20                       8                2.828427                       0                       0                       0
167                      20                       8                       0                       0                       0                       0
168                      22                      10                5.656854                       0                       0                       0
169                      22                      10                2.828427                       0                       0                       0
170                      22                      10                       0                       0                       0                       0
171                      24                       8                5.656854                       0                       0                       0
172                      24                       8                2.828427                       0                       0                       0
173                      24                       8                       0                       0                       0                       0
174                      26                      10                5.656854                       0                       0                       0
175                      26                      10                2.828427                       0                       0                       0
176                      26                      10                       0                       0                       0                       0
177                      28                       8                5.656854                       0                       0                       0
178                      28                       8                2.828427                       0                       0                       0
179                      28                       8                       0                       0                       0                       0
180                      30                      10                5.656854                       0                       0                       0
181                      30                      10                2.828427                       0                       0                       0
182                      30                      10                       0                       0                       0                       0
183                       0                      12                5.656854                       0                       0                       0
184                       0                      12                2.828427                       0                       0                       0
185                       0                      12                       0                       0                       0                       0
186                       2                      14                5.656854                       0                       0                       0
187                       2                      14                2.828427                       0                       0                       0
188                       2                      14                       0                       0                       0                       0
189                       4                      12                5.656854                       0                       0                       0
190                       4                      12                2.828427                       0                       0                       0
191                       4                      12                       0                       0                       0                       0
192                       6                      14                5.656854                       0                       0                       0
193                       6                      14                2.828427                       0                       0                       0
194                       6                      14                       0                       0                       0                       0
195                       8                      12                5.656854                       0                       0                       0
196                       8                      12                2.828427                       0                       0                       0
197                       8                      12                       0                       0                       0                       0
198                      10                      14                5.656854                       0                       0                       0
199                      10                      14                2.828427                       0                       0                       0
200                      10                      14                       0                       0                       0                       0
201                      12                      12                5.656854                       0                       0                       0