ITEM: TIMESTEP
0
ITEM: NUMBER OF ATOMS
422
ITEM: BOX BOUNDS ff ff ff
0.0000000000000000e+00 2.3200000000000000e+02
0.0000000000000000e+00 2.3200000000000000e+02
0.0000000000000000e+00 2.3200000000000000e+02
ITEM: ATOMS id xu yu zu fx fy fz
1        114.545932193839        115.983520815677              108.656854     0.00880593449641038    -0.00059416238322522      0.0133400027397678
2        120.227484840071        115.989226241634              108.656854    -0.00741620448703835    -0.00117822553963397    -0.00559448241460272
3        118.802344993917        115.987795112765              108.656854     0.00684886244072678     0.00321965571656343     0.00982301574768664
4        115.971072038949        115.984951942936              108.656854     0.00299543155878545     0.00295308093136195   -0.000128553247959146
5        118.101075167769        114.749724850164              108.656854     0.00862001232543809      0.0426060374024576        0.13323114298054
6        116.674826990867        114.748292608712              108.656854      -0.016091007803251      0.0157998839033821      0.0375932776557148
7        116.672341865028        117.223022205388              108.656854     -0.0154779101307698    -0.00813123587103672      0.0358223403791754
8        118.098590041422        117.224454446583              108.656854     0.00825749970103033     -0.0353562964241223       0.129249447186238
9        115.917756920757        113.548446241175              108.656854    0.000301107768816162     -0.0157680028334473      0.0139342350690027
10        118.860553482731        113.551401403886              108.656854      0.0291749465693063     -0.0302119894376559        0.11357807043178
11        115.912863550773        118.421345651893              108.656854    0.000896952226613656    -0.00322556468749497      0.0164374529462229
12        118.855660110655        118.424300814179              108.656854      0.0302807149062027      0.0113001917664325       0.117780738738947
13        114.527311260236        113.562444587898              108.656854      0.0485727008094786     -0.0369026466291174       0.156010507734403
14        114.522448808114        118.404554762274              108.656854      0.0489487056504133       0.019514930456414        0.16118471665935
15        120.250968226168        113.568192293572              108.656854     -0.0440834330454844     -0.0167845270562977      0.0210036734337265
16        120.246105771496         118.41030247058              108.656854     -0.0432648726939027     0.00145876650777225      0.0226854762086371
17        113.826795838139         117.19431994364              108.656854    -0.00397161248240283      -0.029469486798522       0.122946051518118
18         113.82922905874        114.771279815063              108.656854    -0.00416549504917331       0.038697878924095        0.12828002798484
19        120.946621196692        114.778427112272              108.656854     -0.0175379317929778      0.0186809924728631      0.0576074654539224
20        120.944187975028         117.20146724296              108.656854     -0.0172050618809471     -0.0098294677453449      0.0556495279509692
21        122.355135022624        114.824435085822              108.656854       0.116900318394148       0.140129552691913      0.0516654536360696
22        122.352791362251        117.158288229576              108.656854       0.113764489655411     -0.0427868258497224      0.0460884595874784
23        112.420625673161        114.814458829493              108.656854     0.00977194647458304       0.114538105849972      0.0451139437825079
24        112.418282013145        117.148311972274              108.656854      0.0110515792069902    -0.00637269988008451      0.0413783512254649
25         122.98672646074        115.991997078118              108.656854     -0.0212167284429681     -0.0252948120199679     -0.0148464796400028
26        111.786690574472        115.980749978664              108.656854     -0.0137129342230227      -0.028123339384951      -0.055927977146328
27        123.009196045824        118.185922140926              108.656854     -0.0731672209089345     -0.0443604667611496       0.114051241282384
28          123.0136022867        113.798121569695              108.656854       -0.08090319797212     -0.0750727877093919       0.102975032223966
29        111.759814750727        118.174625487296              108.656854      0.0158768856025964     -0.0594801609098098      0.0024808212758272
30         111.76422099026         113.78682491673              108.656854      0.0173004122332424     -0.0760708922953715     -0.0101004620807052
31        113.999866822243        112.615454800093              108.656854      -0.028357755050189      0.0238506602518495    -0.00811855307931948
32        113.993103500599        119.350483321209              108.656854     -0.0282110271883958      0.0185067095901368     -0.0139959823002641
33        120.780313532952        112.622263734631              108.656854      0.0862635504448764      0.0263424927208486      0.0019797534963214
34        120.773550207142        119.357292260389              108.656854      0.0833839571902227      0.0134700894080494    -0.00345177052310172
35        116.362286572867         112.56896056388              108.656854      0.0195136352547613      0.0160308904714867     0.00566064944966082
36        116.355425108682        119.401722146141              108.656854      0.0187581399325894      0.0113994487070759     0.00166885832108834
37        118.417991924022        112.571024909739              108.656854     0.00769266020561551      0.0135041722089973    -0.00772630690885114
38        118.411130457531        119.403786490585              108.656854     0.00662359775470355      0.0135248831794672     -0.0114316228295688
39                     100                     100              105.656854       0.212407937835951       0.213917457612301      -0.975696217147114
40                     100                     100              102.828427       0.431797831724929       0.430453440765843    -0.00036285986523271
41                     100                     100                     100       0.212322661462701       0.213448748348708       0.976318571791525
42                     102                     102              105.656854      -0.344956427705117        -0.3474648637657      -0.277942939107651
43                     102                     102              102.828427     -0.0504992309083286     -0.0483446784658438    0.000665859048296536
44                     102                     102                     100       -0.34479355245042      -0.346510759512391       0.276836555784742
45                     104                     100              105.656854      0.0961945463172282       0.960280640399539      -0.808899596957618
46                     104                     100              102.828427        -0.0640908234189       0.726495768361702   -0.000350936282479977
47                     104                     100                     100      0.0963831389353064       0.959624047862779        0.80947174227949
48                     106                     102              105.656854      -0.149923753214465      -0.515427824206901      -0.381581707848413
49                     106                     102              102.828427         0.1427986596945       0.066992851104451    0.000587879083886081
50                     106                     102                     100      -0.150476267602541      -0.514113255169975       0.380663950754201
51                     108                     100              105.656854       0.109854994921096        1.06082407915729      -0.801744232000738
52                     108                     100              102.828427      -0.111734225274929       0.639296135327775    5.42344213403141e-06
53                     108                     100                     100       0.110683384677868        1.06043651594964        0.80168818860636
54                     110                     102              105.656854      -0.143399272392785      -0.583512462216174       -0.37427362985219
55                     110                     102              102.828427       0.147989327935794       0.135935027921216   -0.000372232371083045
56                     110                     102                     100       -0.14545847366032      -0.583284318260367       0.374966897213188
57                     112                     100              105.656854       0.131214578699069        1.10938564922512      -0.810449933204411
58                     112                     100              102.828427      -0.135055483746106       0.588768381756659    0.000849149718492201
59                     112                     100                     100       0.132506834540416        1.11027650307319       0.808987555709447
60                     114                     102              105.656854      -0.162250868031246       -0.62009143925283      -0.361741119652256
61                     114                     102              102.828427       0.167560362636125       0.175632163666949    -0.00217557428516332
62                     114                     102                     100      -0.164468573667826      -0.623108121655714        0.36535828312787
63                     116                     100              105.656854       0.165439275061482        1.14398659235043      -0.821195875548657
64                     116                     100              102.828427      -0.169874193472564       0.552238350689148     0.00161917427019938
65                     116                     100                     100        0.16595721282439        1.14627797236457       0.818474502926783
66                     118                     102              105.656854      -0.207621134031538      -0.649925159206977      -0.347686352848383
67                     118                     102              102.828427       0.212982704967694       0.207359036097052      -0.002941570660389
68                     118                     102                     100      -0.207136471014208      -0.654472556081417       0.352534419219347
69                     120                     100              105.656854       0.222558508028288        1.18149415785236      -0.835458375907613
70                     120                     100              102.828427      -0.228107863981903       0.513675175086727     0.00145671341481396
71                     120                     100                     100       0.221665017148629        1.18347824655698       0.833001521869594
72                     122                     102              105.656854      -0.288730327970969      -0.686020365835929      -0.329779576973031
73                     122                     102              102.828427       0.293453078178139       0.243007675160557    -0.00163127401559411
74                     122                     102                     100      -0.286232292951057      -0.687985254618099       0.332518886459241
75                     124                     100              105.656854       0.326630552190415        1.23579431961706      -0.852316968063615
76                     124                     100              102.828427      -0.323174370305902       0.460197655273352    0.000561123869641568
77                     124                     100                     100       0.325388400268221        1.23620440756826       0.851330025832227
78                     126                     102              105.656854      -0.462663187715337      -0.726947589690182      -0.331805747534054
79                     126                     102              102.828427       0.397917326600274       0.281104085080572    3.80116655250794e-05
80                     126                     102                     100      -0.461075328686974      -0.726133907453813       0.331822453027741
81                     128                     100              105.656854       0.708776932517585        1.34045412037451      -0.754810172396302
82                     128                     100              102.828427       -0.28132642876056       0.396318674950101   -0.000151611627949099
83                     128                     100                     100       0.708170785672238        1.33989889733147       0.755024346110035
84                     130                     102              105.656854       -1.34122349733154      -0.708867299360066      -0.755428579266367
85                     130                     102              102.828427      -0.395339612354127       0.281046167343631    0.000665670825374985
86                     130                     102                     100         -1.340986487928      -0.707605844317854       0.754363401875057
87                     100                     104              105.656854       0.959374806723746       0.099631005122932      -0.808544079293203
88                     100                     104              102.828427       0.727377298312989     -0.0669777610406467   -0.000903024847984706
89                     100                     104                     100       0.958810204767114      0.0986138951297632       0.810060364668112
90                     102                     106              105.656854      -0.514304179845893      -0.156169180655006      -0.382450184811949
91                     102                     106              102.828427      0.0657984009710881       0.147707410858755     0.00182264265359101
92                     102                     106                     100      -0.512967403862161      -0.153965742987744       0.379484957980164
93                     104                     104              105.656854       0.248175766866734       0.252671351451615      -0.388580982953928
94                     104                     104              102.828427      -0.180754054740894      -0.184400974115565    -0.00130638608581225
95                     104                     104                     100        0.24786374375272       0.250566384624838       0.390680455947473
96                     106                     106              105.656854      -0.235592455776593      -0.244525130969113      -0.504510273655281
97                     106                     106              102.828427       0.226951342451769       0.233520501534336     0.00274172649816445
98                     106                     106                     100      -0.235074134397916      -0.239434854636591        0.50016417961052
99                     108                     104              105.656854       0.174722825970808       0.340078584569734      -0.374767342722509
100                     108                     104              102.828427      -0.178109552380278      -0.269820485438446   -0.000929404897304874
101                     108                     104                     100       0.176518281275114       0.337390196071167       0.376172009036317
102                     110                     106              105.656854      -0.184628027605528      -0.298018823380856      -0.492083697954615
103                     110                     106              102.828427       0.193212019795047       0.288244734423704    0.000971401357608404
104                     110                     106                     100      -0.191087079269608       -0.29304266523652       0.490524580315238
105                     112                     104              105.656854        0.16597389521187       0.382833681613429      -0.389755148414015
106                     112                     104              102.828427      -0.173262527979618      -0.316449840773371     0.00179040317780413
107                     112                     104                     100        0.17106951894499       0.384381404564482       0.386737380399484
108                     114                     106              105.656854      -0.182440859763042      -0.313165545484211      -0.469304848324272
109                     114                     106              102.828427        0.19401517847942       0.314276971306895    -0.00643775448882182
110                     114                     106                     100      -0.193192460793419      -0.323278235438116       0.480367959956888
111                     116                     104              105.656854       0.194259618090579       0.405505220164192      -0.406243506804795
112                     116                     104              102.828427      -0.200773830054005      -0.344249629421125     0.00512386114618047
113                     116                     104                     100       0.196647248734576       0.413932064078512       0.397827521991529
114                     118                     106              105.656854      -0.234509166980049      -0.325162566932081      -0.449210485684711
115                     118                     106              102.828427       0.239471950533594       0.332413512374302     -0.0101284584674259
116                     118                     106                     100      -0.232073434622615      -0.343564950148529       0.466569758929542
117                     120                     104              105.656854       0.259032558198629       0.432131139559671      -0.422841998931563
118                     120                     104              102.828427       -0.26382224839543      -0.370722073501144     0.00437798592172038
119                     120                     104                     100        0.25499097445817       0.438963843825996       0.415631030569148
120                     122                     106              105.656854      -0.321057776754553      -0.355635944081109      -0.435203293479837
121                     122                     106              102.828427       0.320881723927832       0.354160588854673     -0.0039266395235209
122                     122                     106                     100      -0.309648692178115      -0.360116004861825       0.441932989982757
123                     124                     104              105.656854       0.370075338218427       0.461539176084656      -0.439337437052641
124                     124                     104              102.828427      -0.363663202489062      -0.396367576246101    0.000707312839844907
125                     124                     104                     100       0.365715774232203       0.461100446389698       0.438076664211732
126                     126                     106              105.656854      -0.469874309962921      -0.369051433665371      -0.441418782106175
127                     126                     106              102.828427       0.403427708726524       0.360979432775569     0.00208744336386715
128                     126                     106                     100      -0.466339259117279      -0.362874364046362        0.43807241908732
129                     128                     104              105.656854       0.729416018439043       0.462527979116758      -0.330647903198148
130                     128                     104              102.828427      -0.283712703375205      -0.397001350132056    -0.00121377565521634
131                     128                     104                     100       0.728548242190944       0.459775136677793       0.332532168616458
132                     130                     106              105.656854       -1.23748290731895      -0.329611985825284      -0.854062771708337
133                     130                     106              102.828427      -0.457893225381855       0.324501846869163     0.00252138798054824
134                     130                     106                     100       -1.23861612331121      -0.325550211725704       0.850052211298109
135                     100                     108              105.656854        1.06280196248375       0.115623648042835      -0.800423733984491
136                     100                     108              102.828427       0.638101346129562      -0.116313032555759    -0.00192818477680175
137                     100                     108                     100        1.06091498992568       0.113966413718801       0.803599882555629
138                     102                     110              105.656854      -0.588968820830271      -0.153455044006292       -0.37762219179764
139                     102                     110              102.828427       0.138899697978836       0.155292303786097     0.00398935545226648
140                     102                     110                     100      -0.584362880635608      -0.150175234821036       0.371205749054433
141                     104                     108              105.656854       0.339215390240144       0.187150335733668      -0.372269757806737
142                     104                     108              102.828427      -0.268294709857565      -0.186843931240488    -0.00397678838989092
143                     104                     108                     100       0.335734742350335       0.182008284104363        0.37863236870007
144                     106                     110              105.656854      -0.300347090391269      -0.211982244153957       -0.50106381207786
145                     106                     110              102.828427       0.286489248843302       0.208997105168963     0.00921081862377971
146                     106                     110                     100      -0.290490861943691      -0.199411996168009       0.485362403168012
147                     108                     108              105.656854        0.22958163490362       0.250168228530013      -0.358904378800488
148                     108                     108              102.828427      -0.232747521883691      -0.245293454731677    -0.00593908888549359
149                     108                     108                     100       0.229589373601356       0.236634627197963       0.369260100586511
150                     110                     110              105.656854      -0.210983362429808      -0.268321182614936      -0.501070263843988
151                     110                     110              102.828427       0.223278825741957       0.247351078316419      0.0111264457258074
152                     110                     110                     100      -0.223460336346045      -0.234197866178661       0.471889180991497
153                     112                     108              105.656854       0.177167710782321       0.273019520094097      -0.383984697753358
154                     112                     108              102.828427      -0.197767676783837       -0.27505901098312     0.00216941570991727
155                     112                     108                     100       0.200514567110172       0.269242101895692       0.380859662532944
156                     114                     110              105.656854      -0.150842805781017      -0.210491026641314      -0.408943822064643
157                     114                     110              102.828427       0.200449782185849       0.252537060982158     -0.0169882157031978
158                     114                     110                     100      -0.209841938533577      -0.251002534232917       0.466274540589536
159                     116                     108              105.656854       0.204488323321324       0.253316019532407      -0.423806131739509
160                     116                     108              102.828427      -0.218137896126169      -0.282997466080729      0.0178715261128417
161                     116                     108                     100       0.216576812355042       0.286394013238476       0.389421269514893
162                     118                     110              105.656854      -0.255626462514774      -0.184285862120006      -0.357123813194857
163                     118                     110              102.828427       0.254907910998288       0.254209644843139     -0.0324780141379473
164                     118                     110                     100      -0.244757014132638       -0.25916560163641       0.454822948315161
165                     120                     108              105.656854       0.293147181203231       0.273946524811447      -0.437441743236018
166                     120                     108              102.828427      -0.287000236515632      -0.298178887184938       0.014247647205881
167                     120                     108                     100       0.272206767585947       0.298918316294246       0.409979187412061
168                     122                     110              105.656854      -0.379830424989165      -0.256498059298825      -0.402639571836985
169                     122                     110              102.828427       0.338282602514961       0.270604919537988    -0.00610272492338334
170                     122                     110                     100      -0.315789620889929      -0.263804678420005       0.423280002521521
171                     124                     108              105.656854       0.386238582264775       0.316317770714564      -0.433558856507126
172                     124                     108              102.828427       -0.37278674332964      -0.313464027362701    -0.00209649223437353
173                     124                     108                     100       0.370571367373175       0.304076605596642        0.43850213558214
174                     126                     110              105.656854      -0.446098664385823      -0.283679129296462      -0.442165607237979
175                     126                     110              102.828427       0.386243824756709       0.268812968985171      0.0124875501985501
176                     126                     110                     100      -0.449540433998441      -0.254877009794773       0.414766088828738
177                     128                     108              105.656854       0.690521844221318       0.296961128687879      -0.324752274901735
178                     128                     108              102.828427      -0.248876301267348      -0.296201249495506    -0.00566828175736038
179                     128                     108                     100       0.693157868816156       0.286355992027724       0.334157555338644
180                     130                     110              105.656854        -1.1783961620628      -0.231611407066922      -0.841631856701034
181                     130                     110              102.828427      -0.512168720408561       0.232562933611264     0.00723518275943325
182                     130                     110                     100       -1.18661805116593      -0.223325838235517       0.829813562865726
183                     100                     112              105.656854         1.1168901780268       0.136989686202315       -0.80754969656543
184                     100                     112              102.828427       0.583806429052472      -0.139463537279567    -0.00320461867841111
185                     100                     112                     100        1.11294384694876       0.135510490357223       0.812767965916933
186                     102                     114              105.656854      -0.635601944945555      -0.169195418377145      -0.368404365253712
187                     102                     114              102.828427       0.184613186980386       0.172451319877998     0.00608189853310726
188                     102                     114                     100      -0.627202599790911      -0.167502529635033       0.358644745494569
189                     104                     112              105.656854       0.397940218367322        0.18320698589444      -0.380169423917197
190                     104                     112              102.828427      -0.323120332279022      -0.184244382221174    -0.00852210318951002
191                     104                     112                     100       0.386292817649538       0.177266933203668       0.394077055706218
192                     106                     114              105.656854      -0.351733251705255      -0.206359280909971      -0.498709688821247
193                     106                     114              102.828427       0.326423837962815       0.207236827448115      0.0172780605854723
194                     106                     114                     100      -0.325490330582356      -0.199679300783898       0.467138242519952
195                     108                     112              105.656854       0.293136782151678       0.239194152065263      -0.341442431664568
196                     108                     112              102.828427      -0.272082733903944      -0.223509515823368     -0.0200471462146045
197                     108                     112                     100       0.264790856358886       0.211616038017273       0.390833330480714
198                     110                     114              105.656854      -0.245979670184934      -0.214065067631005      -0.592364442987635
199                     110                     114              102.828427       0.239749448594876       0.229173760101872      0.0281322655365329
200                     110                     114                     100      -0.242840599778596      -0.220989180844531       0.451045074028594
201                     112                     112              105.656854        0.11671332177177       0.278504829924314      -0.323989387231227