ITEM: TIMESTEP
0
ITEM: NUMBER OF ATOMS
422
ITEM: BOX BOUNDS ff ff ff
0.0000000000000000e+00 2.3200000000000000e+02
0.0000000000000000e+00 2.3200000000000000e+02
0.0000000000000000e+00 2.3200000000000000e+02
ITEM: ATOMS id xu yu zu fx fy fz
1        114.045932193839        115.983520815677              108.656854     0.00344905486690849   -0.000448353303011935      0.0189051072962053
2        119.727484840071        115.989226241634              108.656854    -0.00351186898278381     -0.0011839615364607    -0.00539468439309413
3        118.302344993917        115.987795112765              108.656854     0.00531580233532082     0.00341825592859607       0.016932890842678
4        115.471072038949        115.984951942936              108.656854     0.00455454504431323     0.00306256319816309     0.00178297496411702
5        117.601075167769        114.749724850164              108.656854     -0.0142720461345595      0.0390104857676491       0.120060151822126
6        116.174826990867        114.748292608712              108.656854    -0.00143959387723592     0.00862768357061371      0.0133451492007891
7        116.172341865028        117.223022205388              108.656854    -0.00124172070422265   -0.000885873785500427      0.0124362464755353
8        117.598590041422        117.224454446583              108.656854     -0.0139769135303564     -0.0316276358887001        0.11622006056444
9        115.417756920757        113.548446241175              108.656854      0.0265119666534595     -0.0199885446764893      0.0420374434824114
10        118.360553482731        113.551401403886              108.656854      0.0121525825325808     -0.0392767599443209       0.175011079015966
11        115.412863550773        118.421345651893              108.656854      0.0273360488899238     0.00078621780879154      0.0453948428615534
12        118.355660110655        118.424300814179              108.656854      0.0127216084634676      0.0198305542803489       0.179772225675832
13        114.027311260236        113.562444587898              108.656854      0.0159586231858587     -0.0417207611679163       0.189466250940511
14        114.022448808114        118.404554762274              108.656854      0.0156077587773657      0.0239703569787705       0.194691958967512
15        119.750968226168        113.568192293572              108.656854     -0.0161733963362853      -0.016812448751678        0.02071301373699
16        119.746105771496         118.41030247058              108.656854     -0.0151465903632128     0.00140854628371773      0.0228327967845298
17        113.326795838139         117.19431994364              108.656854     -0.0190642909874105     -0.0199889731928898      0.0913091659016251
18         113.32922905874        114.771279815063              108.656854     -0.0199487435803845       0.029338204027323      0.0955747098918243
19        120.446621196692        114.778427112272              108.656854    -0.00698240432758784     0.00767999619698903      0.0216846848382035
20        120.444187975028         117.20146724296              108.656854    -0.00682686802540872     0.00130714549352608       0.020615927996231
21        121.855135022624        114.824435085822              108.656854       0.122251848402399       0.143228210338891      0.0575284993040923
22        121.852791362251        117.158288229576              108.656854       0.119710261875696     -0.0445576942537917      0.0516350801800574
23        111.920625673161        114.814458829493              108.656854    -0.00282984257946563       0.111206182061808      0.0446263417252385
24        111.918282013145        117.148311972274              108.656854    -0.00206082602599196    -0.00334052841129134      0.0413298968051318
25         122.48672646074        115.991997078118              108.656854     -0.0272637712212427     -0.0256079823367565     0.00319045119435329
26        111.286690574472        115.980749978664              108.656854   -0.000398030871161485     -0.0279379283944471     -0.0433586388389091
27        122.509196045824        118.185922140926              108.656854     -0.0876054064971589     -0.0433663612791693       0.177274724539687
28          122.5136022867        113.798121569695              108.656854     -0.0945658005104464     -0.0779511560923972       0.166026695314269
29        111.259814750727        118.174625487296              108.656854      0.0511760794191505     -0.0583248806691469      0.0449632077131277
30         111.26422099026         113.78682491673              108.656854       0.053138106331582     -0.0769702832681854      0.0319160890279898
31        113.499866822243        112.615454800093              108.656854     -0.0181905731143314      0.0242758152484345    -0.00432798870174362
32        113.493103500599        119.350483321209              108.656854     -0.0179538178828868      0.0180282724245951     -0.0101887167526172
33        120.280313532952        112.622263734631              108.656854      0.0781780756786084      0.0273510365700261      0.0100911297067397
34        120.273550207142        119.357292260389              108.656854      0.0754418524630155      0.0128536656263967     0.00446014386655926
35        115.862286572867         112.56896056388              108.656854      0.0120740666361581      0.0161947459868244      0.0070502713105605
36        115.855425108682        119.401722146141              108.656854      0.0114869444257454      0.0113219002140924     0.00295849527323629
37        117.917991924022        112.571024909739              108.656854      0.0141284292017366      0.0131732943387453    -0.00872732016159605
38        117.911130457531        119.403786490585              108.656854      0.0131609404202739      0.0140187486759786     -0.0123718129991922
39                     100                     100              105.656854       0.212330066352076       0.213954465383074      -0.975689378508557
40                     100                     100              102.828427       0.431869186469232       0.430430841423093   -0.000370570825195959
41                     100                     100                     100       0.212261919852769       0.213456915458044       0.976321860636167
42                     102                     102              105.656854      -0.344807205128854      -0.347535975951199      -0.277958615423781
43                     102                     102              102.828427     -0.0506317216281367     -0.0483085046365672    0.000680389065848641
44                     102                     102                     100        -0.3446872376476      -0.346517230319799       0.276834674104161
45                     104                     100              105.656854      0.0960406957591698       0.960243583541405      -0.808908965516329
46                     104                     100              102.828427     -0.0639643534353722       0.726538079544711   -0.000331332254034414
47                     104                     100                     100      0.0962901904574324       0.959581389619061       0.809443646612913
48                     106                     102              105.656854      -0.149612388874413      -0.515316452201502      -0.381550418892344
49                     106                     102              102.828427       0.142564312912923      0.0668818687393886    0.000529863870473496
50                     106                     102                     100      -0.150324046861725      -0.514017826247192       0.380735487541149
51                     108                     100              105.656854       0.109697773643443        1.06058821621764       -0.80179729082033
52                     108                     100              102.828427      -0.111622150215033       0.639484413773886    8.68675895392727e-05
53                     108                     100                     100       0.110617194250837         1.0603021557963       0.801603009704445
54                     110                     102              105.656854      -0.143189166010899       -0.58294718407274      -0.374124414701675
55                     110                     102              102.828427       0.147869717613703       0.135536083272941   -0.000574085388212251
56                     110                     102                     100      -0.145412702987453      -0.583039149275395       0.375147924746586
57                     112                     100              105.656854        0.13130805507631        1.10899800037886      -0.810536471792978
58                     112                     100              102.828427      -0.135143530241401       0.589049420052597    0.000970100720689141
59                     112                     100                     100       0.132583366726123        1.11009900392655       0.808875348801509
60                     114                     102              105.656854      -0.162703760127102      -0.619478980973467      -0.361579947735086
61                     114                     102              102.828427       0.167908048518399       0.175236499576003    -0.00237570124863468
62                     114                     102                     100      -0.164708770512093      -0.622890603865501       0.365519170790993
63                     116                     100              105.656854       0.165838859449803        1.14385285679248       -0.82122574301499
64                     116                     100              102.828427       -0.17018692686429       0.552332299908218     0.00165965799681277
65                     116                     100                     100       0.166177389696263        1.14622117298259       0.818438521584718
66                     118                     102              105.656854      -0.208357525417172      -0.650124904155263      -0.347738794822641
67                     118                     102              102.828427       0.213521262235927       0.207486553970458    -0.00287722786083122
68                     118                     102                     100      -0.207485963360016      -0.654541404286293       0.352483644415799
69                     120                     100              105.656854        0.22285625106409        1.18179067511763      -0.835392278912613
70                     120                     100              102.828427      -0.228346722885036       0.513465224049939      0.0013664626067511
71                     120                     100                     100       0.221838780982534        1.18360663901055       0.833082600078917
72                     122                     102              105.656854      -0.288865307632237      -0.686730547539308      -0.329966426823459
73                     122                     102              102.828427       0.293583429027853         0.2434777023111     -0.0013938014842474
74                     122                     102                     100       -0.28634469961658      -0.688252287477601       0.332321759277546
75                     124                     100              105.656854       0.326583632395277        1.23614925823013      -0.852237651531567
76                     124                     100              102.828427      -0.323154641024914       0.459932204110451    0.000446846233160273
77                     124                     100                     100       0.325391755764633        1.23637901542333       0.851440365210607
78                     126                     102              105.656854       -0.46234031082805      -0.727303910680469      -0.331900562389925
79                     126                     102              102.828427       0.397700116772922       0.281378116578793     0.00017726575240656
80                     126                     102                     100      -0.460955587801316      -0.726319448091762        0.33168523103371
81                     128                     100              105.656854       0.708599714972011        1.34059145581901      -0.754778787772053
82                     128                     100              102.828427      -0.281190681826047       0.396199981164973   -0.000203532792380481
83                     128                     100                     100       0.708080637286362        1.33999186012053       0.755083706796094
84                     130                     102              105.656854       -1.34098003513004      -0.708865771106373      -0.755430844489878
85                     130                     102              102.828427       -0.39553657963389       0.281071729697866    0.000681559298718686
86                     130                     102                     100       -1.34084587116065      -0.707646364704993       0.754331474631029
87                     100                     104              105.656854        0.95930092947618      0.0997897451204278      -0.808500105860556
88                     100                     104              102.828427       0.727461987162758     -0.0670811397114666    -0.00095784930179076
89                     100                     104                     100       0.958726144331102      0.0986656986292935       0.810099980019834
90                     102                     106              105.656854      -0.514181417331081      -0.156518987270455       -0.38257365365358
91                     102                     106              102.828427      0.0656356199599384       0.147901404089425     0.00195329467833333
92                     102                     106                     100      -0.512808990473882      -0.154041751502168       0.379411612020873
93                     104                     104              105.656854       0.247857782911695       0.252819465198288      -0.388540751069675
94                     104                     104              102.828427      -0.180487213069031      -0.184454849117289    -0.00133239695817429
95                     104                     104                     100       0.247669599767721       0.250558844854973       0.390670013705533
96                     106                     106              105.656854      -0.234802193807586      -0.244858109677203      -0.504626517449562
97                     106                     106              102.828427       0.226361235454598       0.233571352629659     0.00277018910420156
98                     106                     106                     100      -0.234712204976431      -0.239372391747187       0.500234617323145
99                     108                     104              105.656854       0.174040588730764       0.339702684491791      -0.374891662628614
100                     108                     104              102.828427      -0.177670157140344        -0.2695130827731   -0.000739565720094917
101                     108                     104                     100       0.176284991988543       0.337177648459191       0.375983777851249
102                     110                     106              105.656854      -0.183106260158448       -0.29655312144929      -0.491473939436243
103                     110                     106              102.828427       0.192483078918417       0.287384601549549    0.000307331300845963
104                     110                     106                     100      -0.190817271592096      -0.292602481149818       0.491007259982563
105                     112                     104              105.656854       0.165949158891152       0.381481058816563      -0.390189501425703
106                     112                     104              102.828427      -0.173322829089799      -0.315654661793427     0.00227724034245675
107                     112                     104                     100        0.17116385993899       0.383980656095579       0.386381957123764
108                     114                     106              105.656854      -0.183859837532376      -0.310519294551707      -0.468217765479264
109                     114                     106              102.828427       0.194904514516317       0.313051415552333    -0.00738896297121511
110                     114                     106                     100      -0.193706473873692      -0.322784588286245       0.480916008998243
111                     116                     104              105.656854       0.195616468805321       0.404962485458884      -0.406417592601038
112                     116                     104              102.828427      -0.201681923958967      -0.343944913833064     0.00531088268591655
113                     116                     104                     100       0.197182262872978       0.413789058384635       0.397700043377055
114                     118                     106              105.656854      -0.237292597633458      -0.326027084279662      -0.449564521216694
115                     118                     106              102.828427       0.241112618355223       0.332821105710529    -0.00981255525008715
116                     118                     106                     100      -0.232925917776907       -0.34372700189444       0.466390070797224
117                     120                     104              105.656854        0.25991403341787       0.433303777124387      -0.422466245288693
118                     120                     104              102.828427      -0.264439572703953      -0.371384217956791     0.00397259723412579
119                     120                     104                     100       0.255377563795961       0.439279302591832       0.415911129515272
120                     122                     106              105.656854      -0.320848856855466      -0.358449133923078      -0.436360483122822
121                     122                     106              102.828427       0.320929430709766       0.355501693881847    -0.00288891111234521
122                     122                     106                     100      -0.309782889929938      -0.360684986937527        0.44130474600411
123                     124                     104              105.656854       0.369552889555946       0.462543102171603       -0.43901403352164
124                     124                     104              102.828427      -0.363390809517514      -0.397007593142715      0.0003156479559922
125                     124                     104                     100        0.36561717083007       0.461453142050801       0.438388652220975
126                     126                     106              105.656854      -0.468448594545089      -0.369408747456831        -0.4415799084571
127                     126                     106              102.828427        0.40260103801526       0.361348928858952     0.00237560199942395
128                     126                     106                     100      -0.465946440301804      -0.363137638998625       0.437784853835252
129                     128                     104              105.656854       0.728866075291981       0.462574748129863       -0.33062708393774
130                     128                     104              102.828427       -0.28331521132173      -0.397101487067919    -0.00127930809095423
131                     128                     104                     100       0.728304575596666       0.459881303802141       0.332627693825388
132                     130                     106              105.656854       -1.23707944517584      -0.329191357361593      -0.853912511112886
133                     130                     106              102.828427      -0.458262626431378       0.324330245271237     0.00240573912860504
134                     130                     106                     100       -1.23834268829776      -0.325523637033828       0.850074937588037
135                     100                     108              105.656854        1.06290961048173       0.115979412103113      -0.800264164572673
136                     100                     108              102.828427       0.638108202815479        -0.1165337819932    -0.00211733370884818
137                     100                     108                     100         1.0608403000634       0.114073959982226       0.803733211495085
138                     102                     110              105.656854      -0.589358717815319      -0.154177524865399       -0.37810119604836
139                     102                     110              102.828427       0.138896403217984       0.155662457584038       0.004452300046864
140                     102                     110                     100      -0.584199827492477      -0.150315977543255       0.370954724334508
141                     104                     108              105.656854       0.339020731880491       0.188013624764826      -0.371851391878377
142                     104                     108              102.828427      -0.267936455901228      -0.187205138493736    -0.00430946386697138
143                     104                     108                     100       0.335415049351801       0.182100115870229       0.378753248320933
144                     106                     110              105.656854      -0.300045495103215      -0.214318088778821      -0.502857109919486
145                     106                     110              102.828427       0.285531557654249        0.20956442416301      0.0100417572988219
146                     106                     110                     100      -0.289826472675531      -0.199456067002126       0.485254690957499
147                     108                     108              105.656854       0.227112477155149       0.250905430032564       -0.35855787502316
148                     108                     108              102.828427      -0.231339959252454      -0.245153416989593    -0.00579514300980453
149                     108                     108                     100       0.228951764130532        0.23640991627715       0.368949225009339
150                     110                     110              105.656854       -0.20024877069991      -0.267098403809989      -0.499819457554038
151                     110                     110              102.828427       0.220280866517089       0.246225936372906     0.00950949582954263
152                     110                     110                     100      -0.222624356273927      -0.233662225929901       0.472935109074267
153                     112                     108              105.656854       0.175215481407542       0.267350953941325      -0.387233645674783
154                     112                     108              102.828427      -0.197296473327054      -0.273010111168379     0.00430854115392571
155                     112                     108                     100       0.200522912231638       0.268515511127443       0.379807998535009
156                     114                     110              105.656854      -0.159196954641467      -0.198987921749371       -0.39821782843635
157                     114                     110              102.828427       0.202754073516054       0.249979274681717     -0.0210902411359864
158                     114                     110                     100      -0.210825503780065       -0.25027804952602       0.467796839025849
159                     116                     108              105.656854       0.209960187374385       0.251119731128141      -0.425052157337874
160                     116                     108              102.828427      -0.220881355125397       -0.28214830991367      0.0187684118018982
161                     116                     108                     100       0.217821541178042       0.286110841776206       0.389003731716531
162                     118                     110              105.656854      -0.266319016880482      -0.186871857730321      -0.359516083872833
163                     118                     110              102.828427       0.259415337771146       0.255002169183424     -0.0311999066515233
164                     118                     110                     100      -0.246562116277529      -0.259404417136404       0.454318326617896
165                     120                     108              105.656854       0.296622108042995        0.27915732132713        -0.4344759514316
166                     120                     108              102.828427      -0.288685805173927      -0.300048498726608      0.0122814262711605
167                     120                     108                     100       0.273027438012661       0.299535664885917       0.410882248994868
168                     122                     110              105.656854      -0.374975275724332      -0.270936407894841      -0.415975505954447
169                     122                     110              102.828427       0.337522391497506       0.273369242792472    -0.00177958551912893
170                     122                     110                     100      -0.315834108847044      -0.264616161921978       0.421613795949503
171                     124                     108              105.656854       0.382238439617555       0.318716054056162      -0.432153186826986
172                     124                     108              102.828427      -0.371291739311247      -0.314718868000505    -0.00339015771277101
173                     124                     108                     100       0.370113649069697       0.304634826300927       0.439297356276918
174                     126                     110              105.656854      -0.441748893353488      -0.280627013608737      -0.439712696740054
175                     126                     110              102.828427       0.383895118310581       0.268754549195287      0.0123146927741248
176                     126                     110                     100       -0.44859281540239       -0.25510671230037       0.414350634266249
177                     128                     108              105.656854       0.689451000070714       0.295814433337338      -0.325321733410088
178                     128                     108              102.828427      -0.247983437517425      -0.295942540278575    -0.00542293990936802
179                     128                     108                     100       0.692624354476333       0.286388520162428       0.334201609603838
180                     130                     110              105.656854       -1.17872242934735      -0.230189187372615      -0.840610573337299
181                     130                     110              102.828427       -0.51251302726985       0.232032258981135     0.00652000523036553
182                     130                     110                     100       -1.18621505632137      -0.223198523351651       0.830057528913657
183                     100                     112              105.656854        1.11742596172906       0.137357092832725      -0.807190768219615
184                     100                     112              102.828427       0.583617029205642      -0.139681949065638    -0.00360710769690044
185                     100                     112                     100        1.11292187640989       0.135612537783087        0.81303670451944
186                     102                     114              105.656854      -0.636799124319508      -0.169598223927222      -0.369339412580157
187                     102                     114              102.828427       0.184879660465357       0.172653128993442     0.00693329982300864
188                     102                     114                     100      -0.627074624081309      -0.167577971603751       0.358204813305777
189                     104                     112              105.656854       0.399230223448194       0.184541993699735      -0.378523734635759
190                     104                     112              102.828427      -0.322994857471173      -0.184744568591993    -0.00964177326042792
191                     104                     112                     100       0.385896574608542       0.177397203479549       0.394480838354169
192                     106                     114              105.656854      -0.354001310871713      -0.207372923253705      -0.504158867719686
193                     106                     114              102.828427       0.325353221611011       0.207529078444908      0.0194532732802583
194                     106                     114                     100      -0.324576342803342      -0.199713121793835        0.46676779784953
195                     108                     112              105.656854       0.292116442322246        0.24497215631969      -0.331098000198407
196                     108                     112              102.828427      -0.269072606932498      -0.223722065832567      -0.021205286618052
197                     108                     112                     100       0.263561451743208       0.211473127413728       0.390521647284198
198                     110                     114              105.656854       -0.22462129595438      -0.205504878013359      -0.638687637898557
199                     110                     114              102.828427        0.23358731136903       0.228221568338047      0.0254415990286853
200                     110                     114                     100      -0.241404095510871      -0.220710321508748       0.452673807484566
201                     112                     112              105.656854      0.0963996252777691       0.261861669984471      -0.357976625137184