ITEM: TIMESTEP
0
ITEM: NUMBER OF ATOMS
422
ITEM: BOX BOUNDS pp pp pp
0.0000000000000000e+00 3.2000000000000000e+01
0.0000000000000000e+00 3.2000000000000000e+01
0.0000000000000000e+00 3.2000000000000000e+01
ITEM: ATOMS id xu yu zu fx fy fz
1        13.1290634706892        15.9666520925279        8.63998127685063        1.25546548520244        1.51201782967897       0.400946493758032
2        18.8750476492483        16.0367890508115        8.70441280917714       -1.80635248958386       -1.87190050185817      -0.173785102711904
3        17.4369479472221        16.0223980660701        8.69145295330511       -2.96621233433278        -3.4911804896622      -0.680860784897897
4        14.5573232114247        15.9712031154115        8.64310117247565       0.951750330098909        1.21746229898419       0.254507685283869
5        16.6889653292146        14.7376150116091        8.64474016144539        1.92198526595595         1.8759629865923       0.475036311484231
6         15.258093206461        14.7315588243055        8.64011621559359       0.291854318224644       0.427667225170888     -0.0851465249972619
7        15.2979067408957        17.2485870812559        8.68241487586816       -2.49234805485275       -2.54330197442636      -0.369448924172509
8        16.6721475543704        17.1980119595314        8.63040751294888        3.59558378929387        2.77410773859304       0.730580739324536
9         14.506682219154        13.5373715395717        8.64577529839662       -1.00112942936581      -0.711871083318146      -0.281983434483685
10        17.4602073382652        13.5510552594199        8.65650385553385         2.3765318918462        2.27261315940716        0.37017752603186
11        14.5626213281055        18.4711034292256        8.70660777733259       -5.50221742921542       -3.97524705670939      -0.976588089494929
12        17.4269343574879        18.3955750610115        8.62812424683265        2.10353722162615        1.59084405131124       0.328879167839062
13        13.0961936957721        13.5313270234339        8.62573243553634        2.68773423487429        3.06931836756748       0.165076874955848
14         13.074752895349        18.3568588495096        8.60915408723531         7.4895645000022        6.57731114539958        1.20181079719736
15        18.8894180058463        13.6066420732504        8.69529977967827        -3.3510805648387       -2.43229107525641      -0.568860887505259
16        18.8642115590013        18.4284082580854        8.67495578750499       -2.63695787602176       -1.84127904042187      -0.376542344694125
17        12.4674508511306        17.2349749566316        8.69750501299164       -5.93099803448909        -6.9260288665876       -1.13522081176019
18        12.3939837254338        14.7360344817577        8.62160466669426       0.358777616129917       0.570042904154944      -0.153786737971701
19         19.564845261233        14.7966511768129        8.67507406454079       -1.27513465196012       -0.14236970200304      -0.205824548470361
20         19.570565802859        17.2278450707903        8.68322782783077      -0.244326999751337      -0.511532957164506     -0.0676699044898713
21        20.9075338119707         14.776833875169        8.60924878934665        6.90657954424976        6.91896103584233        1.53905011670233
22        20.9512566670018        17.1567535343268        8.65531530475105       0.454952423873137      -0.183369725338447       0.505446947173246
23        10.9884239758698        14.7822571322013        8.62464830270871         2.5918145479897        3.24677239393131       0.696602264704315
24        11.0175656973107        17.1475956564389         8.6561336841653        3.88572754263122        3.03786710952095       0.858339224022204
25        21.6166806295481        16.0219512469263        8.68680416880862       -4.43173708017198       -6.15544610757763       -1.30893072727075
26        10.4180222872807        16.0120816914735        8.68818171280906       -3.20589887683716       -4.19104505033231      -0.706066800961971
27        21.5746810445423        18.1514071396446        8.62233499871826        1.75740255421057        2.68025125253065      -0.020177234871473
28        21.5705376882493        13.7550569712439        8.61378540154917      -0.563682587713795      -0.612711170042105      -0.225055902765951
29        10.3581857731288        18.1729965096976        8.65522102240133      -0.475008786677331      -0.218537773222063     -0.0624928945124251
30        10.3391965824028        13.7618005088721        8.63182559214235       -1.20884139702276       -0.05919426250086      -0.031101419703394
31        12.6498199298621        12.6654079077127        8.70680310761944       -1.80443336125886       -2.81853322209195     -0.0299068462438472
32        12.5941989798047        19.3515788004147        8.65794547920543      -0.531575727030414      -0.986870682458409      -0.295781817705632
33        19.3558524495447        12.5978026512241         8.6323889165928       0.371722006167734        1.10629682817805       0.244425650225094
34         19.355974243177        19.3397162964236        8.63927403603464       0.660585680413261        1.34176033848192      0.0742492733839419
35         14.939939478519        12.5466134695317         8.6345029056521       0.372505639895359        0.22530080664528      0.0948310620650805
36        14.9699123413136        19.4162093787724        8.67133723263161       0.495899032398996        1.33491660704719       0.106855332467292
37        17.0599993253831        12.6130323111009         8.6988574013616      -0.986705444139984       -1.54182852934979      -0.116578541026631
38         17.012161487378        19.4048175204316          8.657881029847      -0.115332499820353      -0.564934808716214      -0.175005185906534
39                       0                       0                5.656854                       0                       0                       0
40                       0                       0                2.828427                       0                       0                       0
41                       0                       0                       0                       0                       0                       0
42                       2                       2                5.656854                       0                       0                       0
43                       2                       2                2.828427                       0                       0                       0
44                       2                       2                       0                       0                       0                       0
45                       4                       0                5.656854                       0                       0                       0
46                       4                       0                2.828427                       0                       0                       0
47                       4                       0                       0                       0                       0                       0
48                       6                       2                5.656854                       0                       0                       0
49                       6                       2                2.828427                       0                       0                       0
50                       6                       2                       0                       0                       0                       0
51                       8                       0                5.656854                       0                       0                       0
52                       8                       0                2.828427                       0                       0                       0
53                       8                       0                       0                       0                       0                       0
54                      10                       2                5.656854                       0                       0                       0
55                      10                       2                2.828427                       0                       0                       0
56                      10                       2                       0                       0                       0                       0
57                      12                       0                5.656854                       0                       0                       0
58                      12                       0                2.828427                       0                       0                       0
59                      12                       0                       0                       0                       0                       0
60                      14                       2                5.656854                       0                       0                       0
61                      14                       2                2.828427                       0                       0                       0
62                      14                       2                       0                       0                       0                       0
63                      16                       0                5.656854                       0                       0                       0
64                      16                       0                2.828427                       0                       0                       0
65                      16                       0                       0                       0                       0                       0
66                      18                       2                5.656854                       0                       0                       0
67                      18                       2                2.828427                       0                       0                       0
68                      18                       2                       0                       0                       0                       0
69                      20                       0                5.656854                       0                       0                       0
70                      20                       0                2.828427                       0                       0                       0
71                      20                       0                       0                       0                       0                       0
72                      22                       2                5.656854                       0                       0                       0
73                      22                       2                2.828427                       0                       0                       0
74                      22                       2                       0                       0                       0                       0
75                      24                       0                5.656854                       0                       0                       0
76                      24                       0                2.828427                       0                       0                       0
77                      24                       0                       0                       0                       0                       0
78                      26                       2                5.656854                       0                       0                       0
79                      26                       2                2.828427                       0                       0                       0
80                      26                       2                       0                       0                       0                       0
81                      28                       0                5.656854                       0                       0                       0
82                      28                       0                2.828427                       0                       0                       0
83                      28                       0                       0                       0                       0                       0
84                      30                       2                5.656854                       0                       0                       0
85                      30                       2                2.828427                       0                       0                       0
86                      30                       2                       0                       0                       0                       0
87                       0                       4                5.656854                       0                       0                       0
88                       0                       4                2.828427                       0                       0                       0
89                       0                       4                       0                       0                       0                       0
90                       2                       6                5.656854                       0                       0                       0
91                       2                       6                2.828427                       0                       0                       0
92                       2                       6                       0                       0                       0                       0
93                       4                       4                5.656854                       0                       0                       0
94                       4                       4                2.828427                       0                       0                       0
95                       4                       4                       0                       0                       0                       0
96                       6                       6                5.656854                       0                       0                       0
97                       6                       6                2.828427                       0                       0                       0
98                       6                       6                       0                       0                       0                       0
99                       8                       4                5.656854                       0                       0                       0
100                       8                       4                2.828427                       0                       0                       0
101                       8                       4                       0                       0                       0                       0
102                      10                       6                5.656854                       0                       0                       0
103                      10                       6                2.828427                       0                       0                       0
104                      10                       6                       0                       0                       0                       0
105                      12                       4                5.656854                       0                       0                       0
106                      12                       4                2.828427                       0                       0                       0
107                      12                       4                       0                       0                       0                       0
108                      14                       6                5.656854                       0                       0                       0
109                      14                       6                2.828427                       0                       0                       0
110                      14                       6                       0                       0                       0                       0
111                      16                       4                5.656854                       0                       0                       0
112                      16                       4                2.828427                       0                       0                       0
113                      16                       4                       0                       0                       0                       0
114                      18                       6                5.656854                       0                       0                       0
115                      18                       6                2.828427                       0                       0                       0
116                      18                       6                       0                       0                       0                       0
117                      20                       4                5.656854                       0                       0                       0
118                      20                       4                2.828427                       0                       0                       0
119                      20                       4                       0                       0                       0                       0
120                      22                       6                5.656854                       0                       0                       0
121                      22                       6                2.828427                       0                       0                       0
122                      22                       6                       0                       0                       0                       0
123                      24                       4                5.656854                       0                       0                       0
124                      24                       4                2.828427                       0                       0                       0
125                      24                       4                       0                       0                       0                       0
126                      26                       6                5.656854                       0                       0                       0
127                      26                       6                2.828427                       0                       0                       0
128                      26                       6                       0                       0                       0                       0
129                      28                       4                5.656854                       0                       0                       0
130                      28                       4                2.828427                       0                       0                       0
131                      28                       4                       0                       0                       0                       0
132                      30                       6                5.656854                       0                       0                       0
133                      30                       6                2.828427                       0                       0                       0
134                      30                       6                       0                       0                       0                       0
135                       0                       8                5.656854                       0                       0                       0
136                       0                       8                2.828427                       0                       0                       0
137                       0                       8                       0                       0                       0                       0
138                       2                      10                5.656854                       0                       0                       0
139                       2                      10                2.828427                       0                       0                       0
140                       2                      10                       0                       0                       0                       0
141                       4                       8                5.656854                       0                       0                       0
142                       4                       8                2.828427                       0                       0                       0
143                       4                       8                       0                       0                       0                       0
144                       6                      10                5.656854                       0                       0                       0
145                       6                      10                2.828427                       0                       0                       0
146                       6                      10                       0                       0                       0                       0
147                       8                       8                5.656854                       0                       0                       0
148                       8                       8                2.828427                       0                       0                       0
149                       8                       8                       0                       0                       0                       0
150                      10                      10                5.656854                       0                       0                       0
151                      10                      10                2.828427                       0                       0                       0
152                      10                      10                       0                       0                       0                       0
153                      12                       8                5.656854                       0                       0                       0
154                      12                       8                2.828427                       0                       0                       0
155                      12                       8                       0                       0                       0                       0
156                      14                      10                5.656854                       0                       0                       0
157                      14                      10                2.828427                       0                       0                       0
158                      14                      10                       0                       0                       0                       0
159                      16                       8                5.656854                       0                       0                       0
160                      16                       8                2.828427                       0                       0                       0
161                      16                       8                       0                       0                       0                       0
162                      18                      10                5.656854                       0                       0                       0
163                      18                      10                2.828427                       0                       0                       0
164                      18                      10                       0                       0                       0                       0
165                      20                       8                5.656854                       0                       0                       0
166                      20                       8                2.828427                       0                       0                       0
167                      20                       8                       0                       0                       0                       0
168                      22                      10                5.656854                       0                       0                       0
169                      22                      10                2.828427                       0                       0                       0
170                      22                      10                       0                       0                       0                       0
171                      24                       8                5.656854                       0                       0                       0
172                      24                       8                2.828427                       0                       0                       0
173                      24                       8                       0                       0                       0                       0
174                      26                      10                5.656854                       0                       0                       0
175                      26                      10                2.828427                       0                       0                       0
176                      26                      10                       0                       0                       0                       0
177                      28                       8                5.656854                       0                       0                       0
178                      28                       8                2.828427                       0                       0                       0
179                      28                       8                       0                       0                       0                       0
180                      30                      10                5.656854                       0                       0                       0
181                      30                      10                2.828427                       0                       0                       0
182                      30                      10                       0                       0                       0                       0
183                       0                      12                5.656854                       0                       0                       0
184                       0                      12                2.828427                       0                       0                       0
185                       0                      12                       0                       0                       0                       0
186                       2                      14                5.656854                       0                       0                       0
187                       2                      14                2.828427                       0                       0                       0
188                       2                      14                       0                       0                       0                       0
189                       4                      12                5.656854                       0                       0                       0
190                       4                      12                2.828427                       0                       0                       0
191                       4                      12                       0                       0                       0                       0
192                       6                      14                5.656854                       0                       0                       0
193                       6                      14                2.828427                       0                       0                       0
194                       6                      14                       0                       0                       0                       0
195                       8                      12                5.656854                       0                       0                       0
196                       8                      12                2.828427                       0                       0                       0
197                       8                      12                       0                       0                       0                       0
198                      10                      14                5.656854                       0                       0                       0
199                      10                      14                2.828427                       0                       0                       0
200                      10                      14                       0                       0                       0                       0
201                      12                      12                5.656854                       0                       0                       0