ITEM: TIMESTEP
0
ITEM: NUMBER OF ATOMS
422
ITEM: BOX BOUNDS ff ff ff
0.0000000000000000e+00 2.3200000000000000e+02
0.0000000000000000e+00 2.3200000000000000e+02
0.0000000000000000e+00 2.3200000000000000e+02
ITEM: ATOMS id xu yu zu fx fy fz
1        113.132056383484        115.969645005323        108.642978189646        5.15494054564537        4.55298611813843      -0.198708484137688
2        118.786893826253        115.948635227816        108.616262986182        5.44303092507563        4.61424165256608      -0.560424710630214
3        117.430508938984        116.015959057832        108.685017945067       -7.16419400246822         -4.843314838506       0.665032406122023
4        114.577240666948        115.991120570934        108.663022627998        0.43199386856558       -1.30955217131994      -0.241830951909004
5        116.719815452454        114.768465134848        108.675594284684       -5.85555723956084       -3.02263538995454      0.0954972123559545
6        115.234348974786        114.707814592631        108.616375983919        11.6233956009211        5.54673876602678      -0.501199867695121
7        115.245929430966        117.196609771326        108.630441565938        5.07151360729474        3.26302304570087       0.120565804221391
8        116.726949780092        117.252814185253        108.685213738671       -9.97208300663699       -4.12181338713821       0.594097342799448
9        114.549830146597        113.580519467014        108.688927225839         2.8271858864855       -11.8047211941896        0.24510096291743
10        117.481554310153        113.572402231308        108.677854827422       -7.70982090438308       -8.88403204947628      0.0748244820060282
11        114.499361013055        118.407843114176        108.643351462282        4.80576953750454        6.39259874186543      -0.126314485735442
12        117.410754907045        118.379395610569         108.61194879639      -0.906603092225519        13.5691860055262      -0.486945453033157
13        113.165370984478         113.60050431214        108.694913724242       -8.36668718854926       -11.7611711505795       0.529865781355913
14        113.096902978065        118.379008932226        108.631308169952       -3.57488697863607        9.80581618559046     -0.0193947815866222
15        118.844010400357        113.561234467762        108.649896174189        4.70109171776492       -8.89986292731384      0.0802158820390025
16        118.813034878934        118.377231578018        108.623783107437        7.31544237194947         10.017775845126      -0.249814637286068
17         112.43020788056        117.197731986061        108.660266042421       -3.81681842928649        0.55653765140656     -0.0161757016737048
18        112.458181281847        114.800232038171        108.685806223108       -6.23330593084324       -5.42275732233282       0.277276711703265
19        119.549643129601        114.781449045181        108.659875932908        1.51305164835367        -2.4403944218643      -0.141305875574475
20        119.518644611718        117.175923879649         108.63131063669        6.19500204675065        3.18333284327636      -0.109636452901084
21        120.921756965979        114.791057029177        108.623475943355        10.9211603666136       -3.95251135160333      -0.251709312898864
22        120.987496566331        117.192993433656        108.691559204081         1.4595454154496      -0.309784308098398       0.422592362320843
23        111.046370456381        114.840203612713         108.68259878322       -13.3763805361478       -17.5820544336619      -0.043881547944072
24        111.012099883716        117.142129842845        108.650671870571       -8.28030016449531        12.5084618830276      -0.112551391512247
25        121.568799951031        115.974070568409        108.638927490292        3.90859510881219        1.36435376079962     -0.0341534222506881
26        110.404996279395        115.999055683588        108.675159704923       -5.88632836693265        -3.4669499948866       0.160670991221572
27        121.586254585514        118.162980680616         108.63391253969          7.644735684247        10.3784461121979      -0.270800746193967
28        121.635280147048        113.819799430043        108.678531860348        5.27646609543494       -7.17404296170023       0.161225781390982
29        110.349002917659        118.163813654228        108.646042166932       -4.87355705943543        6.28948464720276     -0.0859289383258339
30        110.327704888089        113.750308814559        108.620337897829        0.41108837857886        1.35024954774586       0.145949545583897
31        112.628566730996        112.644154708847        108.685553908754       -2.72837202923052       -4.42327760134204    0.000273892389493255
32        112.587753457642        119.345133278252        108.651503957043       -2.98306830075573        4.83354441836819    -0.00279777029746556
33        119.425686257991         112.66763645967        108.702226725039        2.94445857410472       -6.19739419522173       0.153513496305313
34        119.367130456452        119.350872509699         108.65043424931        1.51491414583289        3.09621227592721      0.0421753784603929
35        114.977939430415        112.584613421427        108.672506857548        3.36600197158268       -6.17686286834711      0.0469533097165784
36        114.907425341559        119.353722379018        108.608854232877        4.89254521014159        7.13614511271779      -0.150410523581495
37        117.005627092479        112.558660078197        108.644489168457       -2.56656985695335       -3.38496292937536     -0.0182369789981713
38         116.96217192078        119.354827953834        108.607895463249       -3.12739562056873        6.71896088370168      -0.193609308744146
39                     100                     100              105.656854                       0                       0                       0
40                     100                     100              102.828427                       0                       0                       0
41                     100                     100                     100                       0                       0                       0
42                     102                     102              105.656854                       0                       0                       0
43                     102                     102              102.828427                       0                       0                       0
44                     102                     102                     100                       0                       0                       0
45                     104                     100              105.656854                       0                       0                       0
46                     104                     100              102.828427                       0                       0                       0
47                     104                     100                     100                       0                       0                       0
48                     106                     102              105.656854                       0                       0                       0
49                     106                     102              102.828427                       0                       0                       0
50                     106                     102                     100                       0                       0                       0
51                     108                     100              105.656854                       0                       0                       0
52                     108                     100              102.828427                       0                       0                       0
53                     108                     100                     100                       0                       0                       0
54                     110                     102              105.656854                       0                       0                       0
55                     110                     102              102.828427                       0                       0                       0
56                     110                     102                     100                       0                       0                       0
57                     112                     100              105.656854                       0                       0                       0
58                     112                     100              102.828427                       0                       0                       0
59                     112                     100                     100                       0                       0                       0
60                     114                     102              105.656854                       0                       0                       0
61                     114                     102              102.828427                       0                       0                       0
62                     114                     102                     100                       0                       0                       0
63                     116                     100              105.656854                       0                       0                       0
64                     116                     100              102.828427                       0                       0                       0
65                     116                     100                     100                       0                       0                       0
66                     118                     102              105.656854                       0                       0                       0
67                     118                     102              102.828427                       0                       0                       0
68                     118                     102                     100                       0                       0                       0
69                     120                     100              105.656854                       0                       0                       0
70                     120                     100              102.828427                       0                       0                       0
71                     120                     100                     100                       0                       0                       0
72                     122                     102              105.656854                       0                       0                       0
73                     122                     102              102.828427                       0                       0                       0
74                     122                     102                     100                       0                       0                       0
75                     124                     100              105.656854                       0                       0                       0
76                     124                     100              102.828427                       0                       0                       0
77                     124                     100                     100                       0                       0                       0
78                     126                     102              105.656854                       0                       0                       0
79                     126                     102              102.828427                       0                       0                       0
80                     126                     102                     100                       0                       0                       0
81                     128                     100              105.656854                       0                       0                       0
82                     128                     100              102.828427                       0                       0                       0
83                     128                     100                     100                       0                       0                       0
84                     130                     102              105.656854                       0                       0                       0
85                     130                     102              102.828427                       0                       0                       0
86                     130                     102                     100                       0                       0                       0
87                     100                     104              105.656854                       0                       0                       0
88                     100                     104              102.828427                       0                       0                       0
89                     100                     104                     100                       0                       0                       0
90                     102                     106              105.656854                       0                       0                       0
91                     102                     106              102.828427                       0                       0                       0
92                     102                     106                     100                       0                       0                       0
93                     104                     104              105.656854                       0                       0                       0
94                     104                     104              102.828427                       0                       0                       0
95                     104                     104                     100                       0                       0                       0
96                     106                     106              105.656854                       0                       0                       0
97                     106                     106              102.828427                       0                       0                       0
98                     106                     106                     100                       0                       0                       0
99                     108                     104              105.656854                       0                       0                       0
100                     108                     104              102.828427                       0                       0                       0
101                     108                     104                     100                       0                       0                       0
102                     110                     106              105.656854                       0                       0                       0
103                     110                     106              102.828427                       0                       0                       0
104                     110                     106                     100                       0                       0                       0
105                     112                     104              105.656854                       0                       0                       0
106                     112                     104              102.828427                       0                       0                       0
107                     112                     104                     100                       0                       0                       0
108                     114                     106              105.656854                       0                       0                       0
109                     114                     106              102.828427                       0                       0                       0
110                     114                     106                     100                       0                       0                       0
111                     116                     104              105.656854                       0                       0                       0
112                     116                     104              102.828427                       0                       0                       0
113                     116                     104                     100                       0                       0                       0
114                     118                     106              105.656854                       0                       0                       0
115                     118                     106              102.828427                       0                       0                       0
116                     118                     106                     100                       0                       0                       0
117                     120                     104              105.656854                       0                       0                       0
118                     120                     104              102.828427                       0                       0                       0
119                     120                     104                     100                       0                       0                       0
120                     122                     106              105.656854                       0                       0                       0
121                     122                     106              102.828427                       0                       0                       0
122                     122                     106                     100                       0                       0                       0
123                     124                     104              105.656854                       0                       0                       0
124                     124                     104              102.828427                       0                       0                       0
125                     124                     104                     100                       0                       0                       0
126                     126                     106              105.656854                       0                       0                       0
127                     126                     106              102.828427                       0                       0                       0
128                     126                     106                     100                       0                       0                       0
129                     128                     104              105.656854                       0                       0                       0
130                     128                     104              102.828427                       0                       0                       0
131                     128                     104                     100                       0                       0                       0
132                     130                     106              105.656854                       0                       0                       0
133                     130                     106              102.828427                       0                       0                       0
134                     130                     106                     100                       0                       0                       0
135                     100                     108              105.656854                       0                       0                       0
136                     100                     108              102.828427                       0                       0                       0
137                     100                     108                     100                       0                       0                       0
138                     102                     110              105.656854                       0                       0                       0
139                     102                     110              102.828427                       0                       0                       0
140                     102                     110                     100                       0                       0                       0
141                     104                     108              105.656854                       0                       0                       0
142                     104                     108              102.828427                       0                       0                       0
143                     104                     108                     100                       0                       0                       0
144                     106                     110              105.656854                       0                       0                       0
145                     106                     110              102.828427                       0                       0                       0
146                     106                     110                     100                       0                       0                       0
147                     108                     108              105.656854                       0                       0                       0
148                     108                     108              102.828427                       0                       0                       0
149                     108                     108                     100                       0                       0                       0
150                     110                     110              105.656854                       0                       0                       0
151                     110                     110              102.828427                       0                       0                       0
152                     110                     110                     100                       0                       0                       0
153                     112                     108              105.656854                       0                       0                       0
154                     112                     108              102.828427                       0                       0                       0
155                     112                     108                     100                       0                       0                       0
156                     114                     110              105.656854                       0                       0                       0
157                     114                     110              102.828427                       0                       0                       0
158                     114                     110                     100                       0                       0                       0
159                     116                     108              105.656854                       0                       0                       0
160                     116                     108              102.828427                       0                       0                       0
161                     116                     108                     100                       0                       0                       0
162                     118                     110              105.656854                       0                       0                       0
163                     118                     110              102.828427                       0                       0                       0
164                     118                     110                     100                       0                       0                       0
165                     120                     108              105.656854                       0                       0                       0
166                     120                     108              102.828427                       0                       0                       0
167                     120                     108                     100                       0                       0                       0
168                     122                     110              105.656854                       0                       0                       0
169                     122                     110              102.828427                       0                       0                       0
170                     122                     110                     100                       0                       0                       0
171                     124                     108              105.656854                       0                       0                       0
172                     124                     108              102.828427                       0                       0                       0
173                     124                     108                     100                       0                       0                       0
174                     126                     110              105.656854                       0                       0                       0
175                     126                     110              102.828427                       0                       0                       0
176                     126                     110                     100                       0                       0                       0
177                     128                     108              105.656854                       0                       0                       0
178                     128                     108              102.828427                       0                       0                       0
179                     128                     108                     100                       0                       0                       0
180                     130                     110              105.656854                       0                       0                       0
181                     130                     110              102.828427                       0                       0                       0
182                     130                     110                     100                       0                       0                       0
183                     100                     112              105.656854                       0                       0                       0
184                     100                     112              102.828427                       0                       0                       0
185                     100                     112                     100                       0                       0                       0
186                     102                     114              105.656854                       0                       0                       0
187                     102                     114              102.828427                       0                       0                       0
188                     102                     114                     100                       0                       0                       0
189                     104                     112              105.656854                       0                       0                       0
190                     104                     112              102.828427                       0                       0                       0
191                     104                     112                     100                       0                       0                       0
192                     106                     114              105.656854                       0                       0                       0
193                     106                     114              102.828427                       0                       0                       0
194                     106                     114                     100                       0                       0                       0
195                     108                     112              105.656854                       0                       0                       0
196                     108                     112              102.828427                       0                       0                       0
197                     108                     112                     100                       0                       0                       0
198                     110                     114              105.656854                       0                       0                       0
199                     110                     114              102.828427                       0                       0                       0
200                     110                     114                     100                       0                       0                       0
201                     112                     112              105.656854                       0                       0                       0