ITEM: TIMESTEP
0
ITEM: NUMBER OF ATOMS
422
ITEM: BOX BOUNDS ff ff ff
0.0000000000000000e+00 2.3200000000000000e+02
0.0000000000000000e+00 2.3200000000000000e+02
0.0000000000000000e+00 2.3200000000000000e+02
ITEM: ATOMS id xu yu zu fx fy fz
1        113.145932193839        114.883520815677              108.656854     -0.0237048394580095      0.0260811666240325      0.0700904454970113
2        118.827484840071        114.889226241634              108.656854      0.0206745245127579      0.0268475125978871      0.0722633002413393
3        117.402344993917        114.887795112765              108.656854     -0.0177201157724148      0.0340635357085053       0.089391748016248
4        114.571072038949        114.884951942936              108.656854      0.0231701963339827      0.0347443174025313      0.0920674433757507
5        116.701075167769        113.649724850164              108.656854     -0.0248720351668636    -0.00229355833736727      0.0549292311739399
6        115.274826990867        113.648292608712              108.656854      0.0333251622177029    -0.00265544445448684      0.0576403701095645
7        115.272341865028        116.123022205388              108.656854      0.0062216071175103     0.00106742432163165     0.00496098163314284
8        116.698590041422        116.124454446583              108.656854     0.00157571243883453     0.00112565408352458     0.00445399655438278
9        114.517756920757        112.448446241175              108.656854     0.00865641654716636     -0.0304957054642698      0.0275759974983752
10        117.460553482731        112.451401403886              108.656854     -0.0273506695068625     -0.0304894906026807      0.0280771864331969
11        114.512863550773        117.321345651893              108.656854      0.0258579248230752     -0.0512299922408622       0.132533111578864
12        117.455660110655        117.324300814179              108.656854     -0.0452034023401949     -0.0502136815814647       0.130793681060516
13        113.127311260236        112.462444587898              108.656854    -0.00165101060152051      -0.026396339091762      0.0144907143827916
14        113.122448808114        117.304554762274              108.656854     -0.0229319060618849      -0.037278789248307      0.0883443942138565
15        118.850968226168        112.468192293572              108.656854     -0.0141703304740481     -0.0271976798335145       0.017506268524223
16        118.846105771496         117.31030247058              108.656854     0.00728348834417122     -0.0376414057541259      0.0943609918322039
17        112.426795838139         116.09431994364              108.656854     0.00343589380634977      0.0071489898524833     0.00411912612767753
18         112.42922905874        113.671279815063              108.656854     -0.0144433795818075     -0.0018754786920904      0.0325916272888794
19        119.546621196692        113.678427112272              108.656854      0.0254195105894088    -0.00197917665581135      0.0329786849476129
20        119.544187975028         116.10146724296              108.656854     0.00652438874718005     0.00684958916939762     0.00289851248043498
21        120.955135022624        113.724435085822              108.656854       0.120627551788425        0.15102695887627      0.0439601739672884
22        120.952791362251        116.058288229576              108.656854       0.151668242950025     -0.0396573377556513      0.0315430455866476
23        111.020625673161        113.714458829493              108.656854    -0.00226715257299553       0.150386448554315      0.0689201139715061
24        111.018282013145        116.048311972274              108.656854     -0.0337134190727668     -0.0370289838063999      0.0533738184593004
25        121.586726460739        114.891997078118              108.656854     -0.0636830107972879      0.0101690639225864      0.0655018403082177
26        110.386690574472        114.880749978664              108.656854    -0.00307431111460632      0.0095168866894301      0.0530999472931485
27        121.609196045824        117.085922140926              108.656854      -0.171272394350608      -0.129856231655339       0.107233483796962
28          121.6136022867        112.698121569695              108.656854      -0.173510417239925      -0.117063077482493      0.0470995730093819
29        110.359814750727        117.074625487296              108.656854       0.022005155291541      -0.136691029361558      0.0749290187558329
30         110.36422099026         112.68682491673              108.656854      0.0235886243672195      -0.113686890789869      0.0138478804803654
31        112.599866822243        111.515454800093              108.656854     -0.0161920801014068     0.00390179346659207      0.0156539888131623
32        112.593103500599        118.250483321209              108.656854     -0.0180079467650974      0.0222888817292585      -0.010522872248628
33        119.380313532952        111.522263734631              108.656854      0.0583460475867263     0.00514823074068346     0.00975135592895074
34        119.373550207142        118.257292260389              108.656854      0.0593650301938172      0.0205634800578058     -0.0162605547649607
35        114.962286572867         111.46896056388              108.656854     0.00450805786483771     0.00230330103094878    0.000142906942968281
36        114.955425108682        118.301722146141              108.656854     0.00805859629962546        0.01595062586811    -0.00938922229412158
37        117.017991924022        111.471024909739              108.656854      0.0220621621051332     0.00247401843497047    -0.00067212169105727
38        117.011130457531        118.303786490585              108.656854      0.0180626942683432      0.0155250788508497      -0.010483354966144
39                     100                     100              105.656854       0.212252145844327       0.214328616711902      -0.975590882881255
40                     100                     100              102.828427       0.431971469032566       0.430163043189339   -0.000509589460329765
41                     100                     100                     100       0.212146807612668       0.213615303598107       0.976447528896113
42                     102                     102              105.656854      -0.344650827074234      -0.348265881013779      -0.278188426256822
43                     102                     102              102.828427       -0.05084547461779     -0.0478464627536043    0.000969391945465575
44                     102                     102                     100      -0.344460004465567      -0.346744770107533       0.276613379288706
45                     104                     100              105.656854      0.0955748968316502       0.960635222588668      -0.808810376111158
46                     104                     100              102.828427     -0.0635582998178203       0.726305671613971   -0.000446586628956608
47                     104                     100                     100      0.0959714343447773       0.959676915456158       0.809516404545434
48                     106                     102              105.656854      -0.148527191906296      -0.515988196096488      -0.381750024566498
49                     106                     102              102.828427        0.14170620843314      0.0671794602961346    0.000706161096702285
50                     106                     102                     100      -0.149734571610872      -0.514071205554423       0.380682436092641
51                     108                     100              105.656854        0.10870541872168        1.06037256414382      -0.801871161928379
52                     108                     100              102.828427      -0.110887787385322       0.639705745688393    0.000221711929202425
53                     108                     100                     100       0.110146252383446        1.06010917202592       0.801437798663831
54                     110                     102              105.656854      -0.141223161000698      -0.581834602167921      -0.373717827406771
55                     110                     102              102.828427       0.146621190932127       0.134738774878811    -0.00112531907949123
56                     110                     102                     100      -0.144752997272207      -0.582543087492824       0.375648408833162
57                     112                     100              105.656854       0.130640317504581        1.10756443242446      -0.810962589642097
58                     112                     100              102.828427      -0.134724015025189       0.590020554357722     0.00153464995062887
59                     112                     100                     100       0.132377391283992        1.10953453606439       0.808381630111127
60                     114                     102              105.656854      -0.162546442869317      -0.616307595771763       -0.36041781263668
61                     114                     102              102.828427       0.167943078625081       0.173444724322419    -0.00367488782384929
62                     114                     102                     100      -0.164839385876402      -0.622045079508443       0.366458242543885
63                     116                     100              105.656854       0.166590929351333        1.14228181604791      -0.821731246337569
64                     116                     100              102.828427      -0.170773487195851       0.553313894126302     0.00229093698101013
65                     116                     100                     100       0.166588434506485        1.14571191516258       0.817928374611776
66                     118                     102              105.656854      -0.210758923332051      -0.648515340611795      -0.346987613136766
67                     118                     102              102.828427       0.215151333370141       0.206695769428612    -0.00367025874347871
68                     118                     102                     100      -0.208457420675009      -0.654239972428618       0.353020493322235
69                     120                     100              105.656854       0.224238559349415        1.18165216449817      -0.835529577622027
70                     120                     100              102.828427      -0.229364195616289       0.513510115261254     0.00153275307641382
71                     120                     100                     100       0.222503099378612        1.18361663140646       0.832951691128405
72                     122                     102              105.656854      -0.290622158977611      -0.688010526638889      -0.330189612389588
73                     122                     102              102.828427       0.294808850990331       0.244307440372684    -0.00112327315956542
74                     122                     102                     100      -0.287105544651299      -0.688712695102556       0.332116744251784
75                     124                     100              105.656854       0.327168359500853        1.23701466112748      -0.852069779368055
76                     124                     100              102.828427      -0.323623872535829       0.459321439979121     0.00022343161391304
77                     124                     100                     100       0.325733412011827        1.23675370175003       0.851633764436943
78                     126                     102              105.656854      -0.462229190450425       -0.72877951553334       -0.33231599853041
79                     126                     102              102.828427       0.397703779109338       0.282352759337149    0.000699014616807169
80                     126                     102                     100      -0.461028822958361      -0.726876044017851       0.331259609719389
81                     128                     100              105.656854       0.708454310704147        1.34127786039544      -0.754611573036729
82                     128                     100              102.828427      -0.281111086498222       0.395689096213772   -0.000441976661011522
83                     128                     100                     100        0.70805910605334         1.3403267567095       0.755310214619661
84                     130                     102              105.656854        -1.3404362339739      -0.709433230411815      -0.755627508457697
85                     130                     102              102.828427      -0.395915862174865        0.28149336725254    0.000961284200003715
86                     130                     102                     100       -1.34062439000606        -0.7079238419282       0.754065409901415
87                     100                     104              105.656854       0.959576287764182       0.100576972961093      -0.808184229202254
88                     100                     104              102.828427       0.727380448471887     -0.0675929272680732    -0.00136843217254977
89                     100                     104                     100       0.958665955157642      0.0989309711546425       0.810434486276269
90                     102                     106              105.656854      -0.514907911705218      -0.158149934741683      -0.383441233089863
91                     102                     106              102.828427      0.0657664438366863       0.148776578944539     0.00290270686799144
92                     102                     106                     100       -0.51262620971297      -0.154388714377787       0.378790798039408
93                     104                     104              105.656854       0.247487980941447       0.254387771073645      -0.387924931652947
94                     104                     104              102.828427      -0.179980423752154      -0.185260149439641    -0.00197092974615946
95                     104                     104                     100       0.247194047396153       0.250849728895224       0.391044708856798
96                     106                     106              105.656854      -0.233640703410345      -0.248623626567678      -0.506598057216904
97                     106                     106              102.828427       0.224978437686126       0.234867456991097      0.0042068552349334
98                     106                     106                     100      -0.233693651663882      -0.239610782872207        0.49971398638752
99                     108                     104              105.656854       0.171167132208513       0.340667907864771       -0.37455355461672
100                     108                     104              102.828427      -0.175776033724971      -0.269664040343777   -0.000848999730903846
101                     108                     104                     100       0.175233856662306       0.337025773887371       0.375832394414013
102                     110                     106              105.656854      -0.174714991217498      -0.295881886119533      -0.490923401137307
103                     110                     106              102.828427       0.188581754148692       0.286413828740924   -0.000674634613373203
104                     110                     106                     100      -0.189252802374668      -0.291924835568094       0.491969875508464
105                     112                     104              105.656854       0.162691335062337       0.377274729472671       -0.39208374270095
106                     112                     104              102.828427        -0.1717227907864      -0.313474738465759     0.00417127490423558
107                     112                     104                     100       0.170562112235073       0.383000850360493       0.385114113406159
108                     114                     106              105.656854      -0.182277397922683      -0.298414426932784       -0.46057090344807
109                     114                     106              102.828427        0.19479765941775       0.309111295345166     -0.0123660782513936
110                     114                     106                     100      -0.194023200011785       -0.32153495109772       0.483345812681853
111                     116                     104              105.656854       0.198213164530448       0.399545238154339      -0.409135156430273
112                     116                     104              102.828427      -0.203410803216203      -0.341617950760688     0.00770668829892682
113                     116                     104                     100       0.198193104538464       0.412974586343107       0.396333251854565
114                     118                     106              105.656854       -0.24700855189797      -0.320717282725694      -0.444713350366724
115                     118                     106              102.828427       0.246054825263233       0.332042573991959     -0.0123325348282859
116                     118                     106                     100       -0.23519209009256      -0.343737595289635       0.467419000252509
117                     120                     104              105.656854       0.264716790055879       0.433976809372756      -0.422794445477039
118                     120                     104              102.828427      -0.267269612913134      -0.371997747830046     0.00415591966438602
119                     120                     104                     100        0.25685766405673       0.439660410401516       0.415851094849157
120                     122                     106              105.656854      -0.325447474146218      -0.365897261383794      -0.439157967965983
121                     122                     106              102.828427       0.323334334248893       0.358689654023007   -0.000660142684085781
122                     122                     106                     100       -0.31101467748585      -0.361904765909009       0.440180319593246
123                     124                     104              105.656854       0.370048006272436       0.465959015154637      -0.437883626727923
124                     124                     104              102.828427       -0.36387983599723      -0.398871832700445   -0.000841816155554043
125                     124                     104                     100        0.36601128525547       0.462335403072101       0.439150079254545
126                     126                     106              105.656854      -0.465587635140747        -0.3728729152887      -0.443482730913582
127                     126                     106              102.828427        0.40135047241987       0.363093251628277     0.00417432184247992
128                     126                     106                     100      -0.465543440768849      -0.363933235380114       0.436657399813731
129                     128                     104              105.656854       0.727683911428522       0.463865610366404      -0.330078677003246
130                     128                     104              102.828427      -0.282615444998842       -0.39793794309979    -0.00195455441058294
131                     128                     104                     100       0.727974809121833        0.46035598964451       0.333172511782196
132                     130                     106              105.656854       -1.23549634357476      -0.329392763120934       -0.85426724930254
133                     130                     106              102.828427      -0.459308401364249       0.324508033580527     0.00287895573420563
134                     130                     106                     100       -1.23775730840172       -0.32566298427341        0.84965446127158
135                     100                     108              105.656854        1.06418306142419       0.116943739975568      -0.799478984583893
136                     100                     108              102.828427        0.63754632070406      -0.117072770165641    -0.00303903256090945
137                     100                     108                     100        1.06092566600999       0.114294151888797       0.804396684186517
138                     102                     110              105.656854      -0.592386818242833      -0.155587588409904      -0.380298674463627
139                     102                     110              102.828427       0.139785349845591       0.156210456906986     0.00649954861657391
140                     102                     110                     100      -0.584117271081641      -0.150417734181181       0.369830305321842
141                     104                     108              105.656854       0.341161136067102        0.19164870487341      -0.368964405482857
142                     104                     108              102.828427      -0.267970087312219      -0.188552655255216     -0.0066197567910906
143                     104                     108                     100       0.334859623312199       0.182415181399945       0.379814485047525
144                     106                     110              105.656854      -0.305956795293547       -0.22148103113484      -0.514625071178516
145                     106                     110              102.828427       0.284217172002437       0.210635165266358      0.0152549723703018
146                     106                     110                     100      -0.288307792908359      -0.199351861460853       0.483966819494695
147                     108                     108              105.656854       0.221675937406777        0.26083026154527      -0.350724083482427
148                     108                     108              102.828427      -0.227199004460013      -0.246317701495602    -0.00838234861953833
149                     108                     108                     100       0.226950794778635       0.236209632001447       0.369141076783794
150                     110                     110              105.656854      -0.157907423875307      -0.271593998099815      -0.515887873024255
151                     110                     110              102.828427       0.210655928291695       0.243856375418872     0.00912314798493925
152                     110                     110                     100      -0.219907462378079      -0.232635026677601       0.474766585278874
153                     112                     108              105.656854       0.157563382543873       0.254955392186334      -0.398870513532903
154                     112                     108              102.828427      -0.192321739076653      -0.268989281344277      0.0105864924996469
155                     112                     108                     100          0.199311831679       0.267259369881163       0.376968468208902
156                     114                     110              105.656854      -0.163637035534052      -0.183670718159766      -0.347429100666924
157                     114                     110              102.828427       0.204799714516538       0.247130689548356     -0.0338096573336909
158                     114                     110                     100      -0.212078711712907      -0.249623088301702       0.472251561442767
159                     116                     108              105.656854       0.220330257657174       0.236617413023676      -0.444043460993135
160                     116                     108              102.828427      -0.226138544967423      -0.279369825804622      0.0268977339483436
161                     116                     108                     100       0.220196695655444       0.285680871022352       0.386225251336624
162                     118                     110              105.656854      -0.299603637144243      -0.194838087331195      -0.330412003137577
163                     118                     110              102.828427       0.270683615841455       0.258499917287545     -0.0336613390763953
164                     118                     110                     100      -0.250636960493649      -0.260599310702629       0.454856697756943
165                     120                     108              105.656854       0.317400967964274        0.28886831259234      -0.433446485766771
166                     120                     108              102.828427      -0.295871743126209      -0.303718825207577      0.0104825793864698
167                     120                     108                     100       0.275745075301639       0.300863339900339       0.411808566534408
168                     122                     110              105.656854      -0.377823324303803      -0.305375760521683      -0.459481612537254
169                     122                     110              102.828427       0.338867378563296       0.278490209585095     0.00921199934406372
170                     122                     110                     100      -0.316837261516113       -0.26614121040399       0.418308965630938
171                     124                     108              105.656854       0.375105638376481       0.330288818872689      -0.423218365730971
172                     124                     108              102.828427       -0.36971395379809       -0.31821230413653    -0.00834112327351944
173                     124                     108                     100       0.369958064215503       0.305846177035736       0.441470472591412
174                     126                     110              105.656854       -0.42958327612429      -0.277219690191743      -0.443006052117716
175                     126                     110              102.828427        0.37940366739278          0.268348251252      0.0151436124731188
176                     126                     110                     100      -0.447112273756642       -0.25526699666365       0.412672273711444
177                     128                     108              105.656854       0.685397005540864       0.295700782467559      -0.324298319283505
178                     128                     108              102.828427      -0.245806622426809       -0.29605739229415    -0.00656497875835189
179                     128                     108                     100       0.691642197777567       0.286549626949846       0.335050982315755
180                     130                     110              105.656854       -1.17713354263303       -0.22792412549712      -0.840252737138337
181                     130                     110              102.828427      -0.513884400623957       0.230956365586335      0.0064467221673072
182                     130                     110                     100       -1.18532773528053      -0.222794249041118       0.829871719857367
183                     100                     112              105.656854        1.11960338146518       0.137373899455048      -0.805971338831787
184                     100                     112              102.828427       0.582713791464323      -0.139590225020889    -0.00492657346939345
185                     100                     112                     100        1.11305930947339       0.135485865213131        0.81389460379384
186                     102                     114              105.656854      -0.640299178499075      -0.168385138089552      -0.372033969361625
187                     102                     114              102.828427       0.185682087914907       0.171828691043339     0.00922000066346911
188                     102                     114                     100      -0.626831091108249        -0.1671057393147       0.357098085106548
189                     104                     112              105.656854       0.405819533180992       0.185052320749065      -0.371921484429459
190                     104                     112              102.828427      -0.323522933930023      -0.184502106709936     -0.0137557841485049
191                     104                     112                     100       0.385162650745357       0.177088600922569        0.39598186262186
192                     106                     114              105.656854      -0.356305952807016      -0.201898703245919      -0.518893249294963
193                     106                     114              102.828427       0.322279754686184       0.205374872564431      0.0248184528186296
194                     106                     114                     100      -0.322509507146013      -0.198878618006564       0.465921213240289
195                     108                     112              105.656854       0.295673874983529       0.240248803693417      -0.278046024965747
196                     108                     112              102.828427      -0.260971389105343      -0.220909528674016     -0.0260813223476503
197                     108                     112                     100       0.260585961285024       0.210590435337039       0.390393945119131
198                     110                     114              105.656854      -0.141778102032828      -0.173574037472738      -0.706603922050545
199                     110                     114              102.828427       0.221141412945561       0.225285386008124      0.0150115156652239
200                     110                     114                     100      -0.238744179765694      -0.220102887457936         0.4564126990137
201                     112                     112              105.656854      0.0704363473810007       0.214003296685318      -0.432262372598034