ITEM: TIMESTEP
0
ITEM: NUMBER OF ATOMS
422
ITEM: BOX BOUNDS pp pp pp
0.0000000000000000e+00 3.2000000000000000e+01
0.0000000000000000e+00 3.2000000000000000e+01
0.0000000000000000e+00 3.2000000000000000e+01
ITEM: ATOMS id xu yu zu fx fy fz
1        13.1698472006834        16.0074358225221        8.68076500684484    -0.00549000304748316    -0.00023425208691503     0.00590191685442061
2        18.8188351168913        15.9805765184546        8.64820027682017     0.00611616377498975    0.000691033783939969     0.00946164108145839
3        17.3605487721331        15.9459988909811         8.6150537782161    -0.00648732942803682     0.00253718747128494      0.0172882430247854
4        14.5600484493089        15.9739283532957         8.6458264103599     0.00546683603228739     0.00117348448464503      0.0147763343195583
5         16.661664582088        14.7103142644825         8.6174394143188     -0.0267246274331002      0.0149880858948568      0.0464948958663207
6        15.2462342919761        14.7196999098206        8.62825730110869      0.0281640557544006      0.0167722157687045      0.0521384693104698
7        15.2616036432625        17.2122839836227        8.64611177823497      0.0244599213194162     -0.0157812051005727      0.0428941763231351
8        16.7142873413846        17.2401517465456        8.67254729996304     -0.0224005058455907     -0.0137663134140774      0.0369735065035254
9        14.4724787585077        13.5031680789254        8.61157183775027       0.032015726525774     -0.0336688762925574       0.175617785901117
10        17.4930959034462        13.5839438246009         8.6893924207149     -0.0265984761655241     -0.0218228581222948       0.134221320602577
11        14.4651369537838        18.3736190549039        8.60912340301086      0.0341935587260255      0.0274565777617135       0.191787884150946
12        17.4726030794177        18.4412437829414        8.67379296876247     -0.0285105167159714      0.0238447547064435        0.13836299314771
13        13.0798300119156        13.5149633395774        8.60936875167985     -0.0425338639517607     -0.0224699455914556       0.115526574880202
14         13.166701003945        18.4488069581056         8.7011021958313     -0.0313095314484519      0.0168639257009178      0.0914722441670106
15         18.830219782434         13.547443849838        8.63610155626592      0.0393830002880808     -0.0214745787357728       0.118876696340745
16         18.858967085794        18.4231637848782        8.66971131429778       0.035623078347982      0.0175589795171298       0.102374745028266
17        12.4166494432345        17.1841735487355        8.64670360509556     -0.0145278302839445    -0.00935402101078848      0.0200034577307198
18         12.388433440526        14.7304841968499        8.61605438178646     -0.0164079105545284     0.00970310762808619      0.0258102684151071
19        19.5869923160544        14.8187982316342        8.69722111936215      0.0120960272717935     0.00784389954562335      0.0131996412583282
20        19.5399465094527         17.197225777384         8.6526085344244      0.0158245850839877    -0.00982888903232205      0.0218085120074789
21        20.9911087698351        14.8604088330334        8.69282374721106     -0.0226609083452493      0.0194002664617479      0.0488922499247971
22        20.9377658346717        17.1432627019968        8.64182447242096     -0.0266156617156858     -0.0216112275453777      0.0571740947032585
23        10.9774088103661        14.7712419666976        8.61363313720501      0.0330305421602766      0.0261562910106813      0.0813380333125029
24        11.0326311631822        17.1626611223104        8.67119915003678        0.02484510814659     -0.0202536165121181      0.0537549596475226
25        21.5856033886122        15.9908740059904        8.65572692787267     -0.0015409476419292    0.000175212464110841    -0.00208809983531108
26        10.3697700975029        15.9638295016957        8.63992952303128     0.00150530769766904    0.000751324211120235    -0.00103550096143526
27        21.6039230746392        18.1806491697415        8.65157702881514     -0.0115151744344477     0.00524306597955418      0.0693290672223797
28        21.5905797033385        13.7750989863331        8.63382741663839     -0.0124892969173844    -0.00684997760826567      0.0730071058833049
29        10.3315397035981         18.146350440167        8.62857495287068      0.0109112995906993     0.00481097649533666      0.0798308682446353
30        10.3412603350569        13.7638642615261        8.63388934479639      0.0107190340889746    -0.00741110285465461       0.075659878535069
31        12.6422758163262        12.6578637941769        8.69925899408355   -0.000555672523944686   -0.000542511949364739    -0.00913484255782614
32        12.6279612009685        19.3853410215784        8.69170770036918    -0.00049181393829091    0.000502368274622851    -0.00927728089020136
33        19.3715853473369        12.6135355490164        8.64812181438505     0.00062423895872208    -0.00063738444410726    -0.00908094587471566
34        19.3874646796993        19.3712067329458        8.67076447255688    0.000564251669644142    0.000550695301891877    -0.00919567023562706
35        14.9811243625165        12.5877983535291        8.67568778964957    0.000783505972026022    -0.00132212324598706    -0.00789219067872664
36        14.9236520611502        19.3699490986091        8.62507695246824     0.00116560951975248     0.00192960756885814    -0.00673802616335689
37        17.0116456158612         12.564678601579        8.65050369183969   -0.000832802520762538    -0.00140680040673535    -0.00782740542757226
38        17.0302567369576        19.4229127700111        8.67597627942656   -0.000763653639876638     0.00132317966758959    -0.00791148235534648
39                       0                       0                5.656854                       0                       0                       0
40                       0                       0                2.828427                       0                       0                       0
41                       0                       0                       0                       0                       0                       0
42                       2                       2                5.656854      5.856371332177e-10    8.25937024495871e-10    2.09016668318917e-10
43                       2                       2                2.828427                       0                       0                       0
44                       2                       2                       0                       0                       0                       0
45                       4                       0                5.656854                       0                       0                       0
46                       4                       0                2.828427                       0                       0                       0
47                       4                       0                       0                       0                       0                       0
48                       6                       2                5.656854    1.83182802040678e-08    3.73758526563471e-08    9.56606224614222e-09
49                       6                       2                2.828427    6.35651791129711e-10    1.35055397618541e-09    6.75828171981519e-10
50                       6                       2                       0                       0                       0                       0
51                       8                       0                5.656854    6.73230501408294e-10    4.85820393790724e-11    4.73480084634411e-10
52                       8                       0                2.828427    3.76048599437363e-10   -3.41798991975344e-11     4.7601112314439e-10
53                       8                       0                       0                       0                       0                       0
54                      10                       2                5.656854    7.86320661521535e-08    3.06088805329135e-07    8.03565788099494e-08
55                      10                       2                2.828427    2.85248261035594e-09    1.11843799197788e-08    5.70743641772399e-09
56                      10                       2                       0    9.65005402411107e-10     4.2092389739403e-09    3.25549501145622e-09
57                      12                       0                5.656854     1.3620258909552e-09    2.20325396061838e-10    2.21998098906117e-09
58                      12                       0                2.828427    1.52602639166293e-09    1.34317066804427e-09    4.78811253369324e-09
59                      12                       0                       0                       0                       0                       0
60                      14                       2                5.656854     4.7689469342501e-08    7.47978313564129e-07     2.0007005218411e-07
61                      14                       2                2.828427     1.6266234972326e-09    2.61005397758723e-08    1.35280419238604e-08
62                      14                       2                       0    7.81917229998316e-10    1.10608766055614e-08    8.64701014682868e-09
63                      16                       0                5.656854   -7.40077722358309e-12    2.99329682616732e-10    3.31812907453682e-09
64                      16                       0                2.828427   -2.31778111712946e-10    1.35618437963944e-09    7.66601941066131e-09
65                      16                       0                       0                       0                       0                       0
66                      18                       2                5.656854   -4.97638400361772e-08    7.39533612356543e-07    1.98161539993035e-07
67                      18                       2                2.828427     -1.713436643719e-09    2.56760377274008e-08     1.3344299055945e-08
68                      18                       2                       0   -8.06446563803512e-10    1.09100430695069e-08    8.54535550118743e-09
69                      20                       0                5.656854   -1.28303421596811e-09    3.49313057882305e-10    2.17432056375045e-09
70                      20                       0                2.828427   -1.50743420947276e-09   -9.04562133901096e-10    4.74563832524516e-09
71                      20                       0                       0                       0                       0                       0
72                      22                       2                5.656854   -7.74758665660918e-08    2.97331842636129e-07    7.84584077917862e-08
73                      22                       2                2.828427   -2.79799896133025e-09    1.07930094808932e-08    5.53668241811616e-09
74                      22                       2                       0   -9.90687523169439e-10    4.22531653837465e-09    3.27594591305154e-09
75                      24                       0                5.656854   -6.78685694691507e-10    3.86026675819825e-11    4.72922833118461e-10
76                      24                       0                2.828427    -3.9396749215001e-10    1.38184601384615e-11    4.97160523775241e-10
77                      24                       0                       0                       0                       0                       0
78                      26                       2                5.656854   -1.75439539086499e-08      3.532853670125e-08    9.09778127942125e-09
79                      26                       2                2.828427   -6.15443530698093e-10     1.2853176508275e-09    6.46064476591777e-10
80                      26                       2                       0                       0                       0                       0
81                      28                       0                5.656854                       0                       0                       0
82                      28                       0                2.828427                       0                       0                       0
83                      28                       0                       0                       0                       0                       0
84                      30                       2                5.656854    -5.4791495235543e-10     7.6720541636366e-10    1.93964410173239e-10
85                      30                       2                2.828427                       0                       0                       0
86                      30                       2                       0                       0                       0                       0
87                       0                       4                5.656854    1.35912582769044e-11    3.14510460377641e-10    9.58416380056046e-11
88                       0                       4                2.828427                       0                       0                       0
89                       0                       4                       0                       0                       0                       0
90                       2                       6                5.656854    1.05682737340168e-07    9.71312126110484e-08    3.59038443851779e-08
91                       2                       6                2.828427    3.96667913176094e-09     3.6068502289586e-09    2.59854512512626e-09
92                       2                       6                       0    1.14669982965058e-09    1.06732333826163e-09    1.18692847881632e-09
93                       4                       4                5.656854    1.17099513964183e-08    1.60974452991043e-08    4.86446374214403e-09
94                       4                       4                2.828427     1.4212671202347e-08    1.97726548852098e-08    1.15924623684636e-08
95                       4                       4                       0    1.12779497684887e-10    1.73650607086841e-10    1.53553970649953e-10
96                       6                       6                5.656854     3.4444063158592e-06    5.14845451131357e-06    1.94724955199978e-06
97                       6                       6                2.828427    9.57390888670295e-08    1.40909669473163e-07    1.03152790379963e-07
98                       6                       6                       0    3.68390626397743e-08    5.33065225650816e-08    5.81669578572549e-08
99                       8                       4                5.656854    1.31696073034665e-07    3.12978085750648e-07    9.71912774007852e-08
100                       8                       4                2.828427    1.35567707845505e-07    3.18817204376067e-07     1.9168628326093e-07
101                       8                       4                       0    1.85428641206017e-09    4.41182248873913e-09    3.93719847863696e-09
102                      10                       6                5.656854    2.19342936240952e-05    6.62212280884087e-05    2.63717796850152e-05
103                      10                       6                2.828427    4.61823237721771e-07    1.37044007898334e-06    1.04594716876579e-06
104                      10                       6                       0    1.41176519874782e-07    4.09698111891604e-07    4.57869246592086e-07
105                      12                       4                5.656854    2.62710484576987e-07    1.58997761655323e-06    5.10941746372421e-07
106                      12                       4                2.828427    2.37904261851271e-07    1.40423731136398e-06    8.69141685040431e-07
107                      12                       4                       0    3.00070399571904e-09    1.73247623345604e-08      1.579792846707e-08
108                      14                       6                5.656854    1.18415352710936e-05    0.000185901914024001    7.68103885818198e-05
109                      14                       6                2.828427    2.41126397814126e-07    3.39406141493228e-06    2.67653830442562e-06
110                      14                       6                       0    7.20453331452727e-08     9.0864927923143e-07     1.0435155898375e-06
111                      16                       4                5.656854   -6.25845077594288e-09    2.36124907772408e-06    7.69436179027148e-07
112                      16                       4                2.828427   -7.48279170481663e-09    2.03066575368832e-06     1.2733071750081e-06
113                      16                       4                       0   -1.20305689321111e-10    2.41969657328232e-08    2.23581489106286e-08
114                      18                       6                5.656854   -1.24629339466144e-05    0.000182575860209839    7.58030953310625e-05
115                      18                       6                2.828427   -2.60846789259276e-07    3.31403761118431e-06    2.62382038265299e-06
116                      18                       6                       0   -7.98054228455833e-08    8.85003849810693e-07    1.01922683148955e-06
117                      20                       4                5.656854   -2.61306789661053e-07    1.55401069532096e-06    5.02067960310762e-07
118                      20                       4                2.828427   -2.35952503210546e-07    1.36105459535431e-06    8.46829528678329e-07
119                      20                       4                       0   -2.98868991542876e-09    1.66885659726281e-08    1.52851892469679e-08
120                      22                       6                5.656854   -2.15207228799022e-05    6.37393619942734e-05    2.55925591497606e-05
121                      22                       6                2.828427   -4.48315147488381e-07    1.30475090893639e-06     1.0031676588089e-06
122                      22                       6                       0   -1.36153560265326e-07    3.87178496793055e-07    4.35169232022957e-07
123                      24                       4                5.656854   -1.27669928114739e-07    2.98432108065533e-07    9.32894248864052e-08
124                      24                       4                2.828427   -1.29884274100253e-07    3.01389955883922e-07    1.82339655789897e-07
125                      24                       4                       0   -1.76651238586836e-09    4.14348719884608e-09    3.71999436951676e-09
126                      26                       6                5.656854   -3.24030520671988e-06    4.77579862315182e-06    1.81798754744826e-06
127                      26                       6                2.828427   -8.96727572202236e-08    1.30385271059686e-07    9.59411690198677e-08
128                      26                       6                       0   -3.47617904571061e-08    5.00336470046056e-08    5.45956652290556e-08
129                      28                       4                5.656854   -1.09372001359277e-08    1.48781940383976e-08    4.52359404167287e-09
130                      28                       4                2.828427   -1.32672142036824e-08    1.82563303854088e-08    1.07532101532462e-08
131                      28                       4                       0   -1.48224330553792e-10    2.04595564808882e-10    1.85620064040507e-10
132                      30                       6                5.656854   -9.66568464854575e-08    8.84975732279829e-08    3.28609089932398e-08
133                      30                       6                2.828427   -3.62851362579406e-09    3.27826280272048e-09    2.36930418918954e-09
134                      30                       6                       0   -1.07565926889742e-09    9.94522451751442e-10    1.10436345897168e-09
135                       0                       8                5.656854    1.09092285650395e-09    1.31762632442259e-08    6.25054065218493e-09
136                       0                       8                2.828427    1.21557309504367e-09    1.50014241590514e-08    1.40367331322757e-08
137                       0                       8                       0    1.04766017637087e-11    1.53714913452054e-10    2.30039073470791e-10
138                       2                      10                5.656854    3.46159283830567e-06    1.74951298523581e-06    1.19101378759538e-06
139                       2                      10                2.828427    9.82528986859708e-08    5.02366759873091e-08    6.54982522636592e-08
140                       2                      10                       0    3.96905840703329e-08    2.03993789782961e-08    3.89035444287019e-08
141                       4                       8                5.656854    1.09469022117557e-06    9.75674679205342e-07     4.7592967329327e-07
142                       4                       8                2.828427    9.15022313526238e-07    8.11917472802381e-07     7.6365214890855e-07
143                       4                       8                       0    1.06707299117856e-08    9.41565010361036e-09    1.30305351701624e-08
144                       6                      10                5.656854    0.000299803888113875    0.000256895261575912    0.000184933905898946
145                       6                      10                2.828427    4.27559791224893e-06    3.63220823734054e-06    4.94836016916146e-06
146                       6                      10                       0    9.38806198987506e-07    7.89070749583126e-07    1.54730454751108e-06
147                       8                       8                5.656854    2.42597028747099e-05    4.14804508753562e-05    2.11636821288325e-05
148                       8                       8                2.828427    1.27638758653894e-05    2.10138207005037e-05    2.05478059075193e-05
149                       8                       8                       0    9.73306459841502e-08     1.5452465837921e-07    2.20273654857559e-07
150                      10                      10                5.656854     0.00294415935573744     0.00602106613832309     0.00471741887992798
151                      10                      10                2.828427    2.53509272167993e-05    4.93160107546656e-05    7.20133920087342e-05
152                      10                      10                       0    3.67475221709897e-06    6.70359284320473e-06    1.39004214714944e-05
153                      12                       8                5.656854    6.35717953173177e-05    0.000297086782634635    0.000164968839264307
154                      12                       8                2.828427    2.42589682521853e-05    0.000108863190283782    0.000113451402662742
155                      12                       8                       0    1.46115787750661e-07    6.19405128820109e-07     9.2679841129857e-07
156                      14                      10                5.656854    0.000926149598630717       0.015494023513704      0.0134626524877259
157                      14                      10                2.828427    8.76663043617933e-06     0.00011571031535323    0.000183691347386188
158                      14                      10                       0    1.42733472339606e-06    1.38483613434966e-05    3.04478441191538e-05
159                      16                       8                5.656854   -2.37285680204992e-06    0.000427424941508723    0.000244842338906138
160                      16                       8                2.828427    -1.2292508192081e-06    0.000150539521545367    0.000161166655513678
161                      16                       8                       0   -8.16488310423553e-09    8.34612407918463e-07     1.2761466273117e-06
162                      18                      10                5.656854    -0.00107596064433977      0.0150861697730287      0.0131981222818287
163                      18                      10                2.828427   -1.03883332736399e-05     0.00011110143088441    0.000177093793064902
164                      18                      10                       0   -1.68430651003467e-06     1.3386304019504e-05    2.94431392581832e-05
165                      20                       8                5.656854   -6.25274296037351e-05    0.000287261125754276    0.000161214021556396
166                      20                       8                2.828427   -2.38291161443087e-05    0.000103708246225896    0.000108958662284723
167                      20                       8                       0   -1.44648060033962e-07    5.87907407966412e-07    8.83784953191528e-07
168                      22                      10                5.656854    -0.00283214761333645     0.00563485500824798     0.00447544558273359
169                      22                      10                2.828427   -2.40690623710374e-05    4.57831867737147e-05    6.74077127323498e-05
170                      22                      10                       0   -3.49128656038239e-06    6.25208828115372e-06    1.29925334796714e-05
171                      24                       8                5.656854   -2.30687829476937e-05    3.86329381404504e-05    1.98798027867837e-05
172                      24                       8                2.828427   -1.20491664028803e-05    1.95002512276904e-05    1.91958492420293e-05
173                      24                       8                       0   -9.13452838295003e-08    1.43111398372881e-07    2.05008554429644e-07
174                      26                      10                5.656854   -0.000274499224296511    0.000233198911501883    0.000168412577973637
175                      26                      10                2.828427   -3.93098955096359e-06    3.31670108563844e-06    4.52295788928347e-06
176                      26                      10                       0   -8.67856884821132e-07    7.26294184378987e-07    1.42230964630008e-06
177                      28                       8                5.656854   -1.00215463396001e-06    8.86965688637928e-07    4.34353516517422e-07
178                      28                       8                2.828427   -8.39351387940344e-07     7.3993810900077e-07    6.97377313089339e-07
179                      28                       8                       0   -9.81547424920704e-09    8.61411198844791e-09    1.19351508586327e-08
180                      30                      10                5.656854   -3.13722452921796e-06    1.58926972255278e-06    1.08106054924129e-06
181                      30                      10                2.828427   -8.91236541803575e-08    4.58406966974661e-08    5.95784282982005e-08
182                      30                      10                       0   -3.62369532427297e-08    1.86481713326174e-08    3.54325791587922e-08
183                       0                      12                5.656854    1.07982994155148e-08     6.2347094364591e-08    6.58492574144697e-08
184                       0                      12                2.828427    1.17371327443379e-08    7.00715172808951e-08    1.40812910262009e-07
185                       0                      12                       0    1.59840409515062e-10    1.04581429993188e-09    2.99953137918467e-09
186                       2                      14                5.656854    1.99715893870324e-05    2.77884660737108e-06    6.88069519500822e-06
187                       2                      14                2.828427    4.84749817647979e-07    7.14737401738284e-08    3.24256583148133e-07
188                       2                      14                       0     1.6815036255048e-07     2.6002200391958e-08    1.64578563830051e-07
189                       4                      12                5.656854    2.50663072701923e-05    9.44085603469255e-06    1.11383314469465e-05
190                       4                      12                2.828427    1.38459406346242e-05    5.41940872239877e-06    1.17939995363277e-05
191                       4                      12                       0    1.09556217765961e-07    4.43105518900821e-08    1.35829088495086e-07
192                       6                      14                5.656854     0.00332472057864729    0.000663793988126812     0.00208835986781224
193                       6                      14                2.828427    3.10919708399014e-05    7.03059001720201e-06    3.68373442256115e-05
194                       6                      14                       0    4.73029417701104e-06    1.16161280346204e-06    7.98899055593983e-06
195                       8                      12                5.656854     0.00139584760356306     0.00109590879140435     0.00142942820962957
196                       8                      12                2.828427    0.000304184308028011    0.000235422951052312    0.000554063743536378
197                       8                      12                       0    1.19558337989957e-06    9.08644523480395e-07    2.95232736793339e-06
198                      10                      14                5.656854     -0.0274062637506854     -0.0124283877962685       -0.16771664182638
199                      10                      14                2.828427    0.000188344173307751    0.000110447261446461    0.000666935191529518
200                      10                      14                       0    1.77019219044496e-05    1.01182674818473e-05    7.67092735241479e-05
201                      12                      12                5.656854     0.00169293999709552     0.00548483222157084     0.00771535208607363