ITEM: TIMESTEP
0
ITEM: NUMBER OF ATOMS
422
ITEM: BOX BOUNDS ff ff ff
0.0000000000000000e+00 2.3200000000000000e+02
0.0000000000000000e+00 2.3200000000000000e+02
0.0000000000000000e+00 2.3200000000000000e+02
ITEM: ATOMS id xu yu zu fx fy fz
1        113.145932193839        115.283520815677              108.656854     -0.0130232703407998      0.0211129659961954      0.0352278007414323
2        118.827484840071        115.289226241634              108.656854      0.0100684118431393      0.0216177035569032      0.0364879026852564
3        117.402344993917        115.287795112765              108.656854    -0.00836251047118244      0.0279925125881279       0.047061312658114
4        114.571072038949        115.284951942936              108.656854      0.0140384727923057      0.0286350245078684      0.0487701425782892
5        116.701075167769        114.049724850164              108.656854     -0.0272872247200208     0.00605673037074156      0.0599141273882962
6        115.274826990867        114.048292608712              108.656854      0.0358266016799301     0.00607500052526389      0.0628880278233313
7        115.272341865028        116.523022205388              108.656854      0.0101621892968915    -0.00437502925906086      0.0117516668367719
8        116.698590041422        116.524454446583              108.656854    -0.00229397226515465    -0.00398961775856713      0.0108818483178001
9        114.517756920757        112.848446241175              108.656854      0.0154826110693082     -0.0455854642996078      0.0678645113056188
10        117.460553482731        112.851401403886              108.656854     -0.0344208901879324     -0.0452941951156327      0.0679697567275416
11        114.512863550773        117.721345651893              108.656854      0.0327819650442919     -0.0322487699163825       0.173968634854624
12        117.455660110655        117.724300814179              108.656854     -0.0522909173717128     -0.0314137971522371       0.171207861473033
13        113.127311260236        112.862444587898              108.656854     -0.0104139433111831      -0.037473437744656      0.0445913274114472
14        113.122448808114        117.704554762274              108.656854     -0.0316659693492974     -0.0236374543052989       0.119111169822631
15        118.850968226168        112.868192293572              108.656854    -0.00539438937710823     -0.0383349583821971      0.0484934212269146
16        118.846105771496         117.71030247058              108.656854      0.0159960143862993     -0.0233807172874615       0.125884734988157
17        112.426795838139         116.49431994364              108.656854      0.0010936121500653     0.00502759060908892     0.00697103342160305
18         112.42922905874        114.071279815063              108.656854     -0.0157789439360417     0.00261266994194417      0.0350810424669004
19        119.546621196692        114.078427112272              108.656854      0.0267493547793222     0.00274586435517646      0.0354424741401437
20        119.544187975028         116.50146724296              108.656854     0.00904123949635245     0.00445466526305507     0.00607448174466558
21        120.955135022624        114.124435085822              108.656854       0.118866226031673       0.140421233622416      0.0442267107383383
22        120.952791362251        116.458288229576              108.656854        0.14746695190673     -0.0266694080142033      0.0297034805818366
23        111.020625673161        114.114458829493              108.656854   -0.000288704979200471       0.140869031152772      0.0694768419582556
24        111.018282013145        116.448311972274              108.656854     -0.0299105101234169     -0.0236950091097472      0.0518641289032934
25        121.586726460739        115.291997078118              108.656854     -0.0603219199980825     0.00525123721335766      0.0314399200850421
26        110.386690574472        115.280749978664              108.656854    -0.00621984935986342     0.00455880959410884      0.0185803669472679
27        121.609196045824        117.485922140926              108.656854      -0.173786604169813      -0.113610146241036       0.158192179457692
28          121.6136022867        113.098121569695              108.656854      -0.176184602093969      -0.124525282636134      0.0997406599665983
29        110.359814750727        117.474625487296              108.656854       0.024837154291053      -0.121994194797609       0.126717399774445
30         110.36422099026         113.08682491673              108.656854      0.0259288828011962      -0.122730716505341      0.0664414198415633
31        112.599866822243        111.915454800093              108.656854     -0.0156432543818956      0.0121128517651041      0.0189572634850753
32        112.593103500599        118.650483321209              108.656854     -0.0173321537676572      0.0157001686455448    -0.00611482595431043
33        119.380313532952        111.922263734631              108.656854      0.0579069393615694      0.0132158298155095      0.0129283182850611
34        119.373550207142        118.657292260389              108.656854      0.0584332939549343      0.0139083476584334     -0.0118517548466456
35        114.962286572867         111.86896056388              108.656854     0.00396265256183631     0.00659010270516908     0.00151151794896657
36        114.955425108682        118.701722146141              108.656854      0.0069343010963312      0.0126542247914296    -0.00841926969937773
37        117.017991924022        111.871024909739              108.656854       0.022675374898278     0.00677243053143045    0.000729228466235864
38        117.011130457531        118.703786490585              108.656854      0.0190426092220888      0.0121554791071926     -0.0093600314155054
39                     100                     100              105.656854       0.212214772712614       0.214206604464354      -0.975626042389898
40                     100                     100              102.828427       0.431991748064171       0.430253613506904   -0.000458396796546545
41                     100                     100                     100        0.21214228887314       0.213557451250906       0.976398272592682
42                     102                     102              105.656854      -0.344577174363159       -0.34802397852671      -0.278104751809278
43                     102                     102              102.828427     -0.0508758133987524     -0.0480071552124989    0.000859917158654493
44                     102                     102                     100      -0.344461934680618       -0.34665603829862       0.276704866458394
45                     104                     100              105.656854      0.0956331778927823       0.960433611500881      -0.808862317621182
46                     104                     100              102.828427      -0.063617996895918       0.726441974699657   -0.000378623105569314
47                     104                     100                     100      0.0960255419407366       0.959600060536283       0.809460198456375
48                     106                     102              105.656854      -0.148705948486392      -0.515584532484047      -0.381628275835713
49                     106                     102              102.828427       0.141863773237527      0.0669477395134987    0.000571694776823646
50                     106                     102                     100      -0.149854153827278      -0.513964406448641       0.380771483157203
51                     108                     100              105.656854       0.108999605106092        1.06024949927842      -0.801889779559817
52                     108                     100              102.828427      -0.111109346332553       0.639777869566855    0.000238784308793959
53                     108                     100                     100       0.110293314798767        1.06007642509852       0.801432774783724
54                     110                     102              105.656854      -0.141923107954406      -0.581800570041471      -0.373754233656844
55                     110                     102              102.828427       0.147075455475327       0.134730776945008    -0.00107098468545152
56                     110                     102                     100      -0.145007041574388      -0.582547903261184       0.375592525936469
57                     112                     100              105.656854       0.131025411832396        1.10785987440633      -0.810851410350428
58                     112                     100              102.828427      -0.134989149139263       0.589835005311068     0.00139349005529445
59                     112                     100                     100       0.132534494540389        1.10963214293881       0.808499321709571
60                     114                     102              105.656854      -0.163027967142125      -0.617210412432555       -0.36080050199543
61                     114                     102              102.828427       0.168235336305803       0.173910768021295    -0.00327041497891057
62                     114                     102                     100      -0.164988871284484      -0.622241185281414       0.366182831488489
63                     116                     100              105.656854       0.166590136041156        1.14287316481854      -0.821531627194282
64                     116                     100              102.828427      -0.170772955358414       0.552954923820306     0.00204720208465882
65                     116                     100                     100        0.16658812187328        1.14589135818043       0.818120178490069
66                     118                     102              105.656854       -0.21027489969615      -0.649415083660813      -0.347369367784732
67                     118                     102              102.828427        0.21485750352162         0.2071602477193    -0.00326665042499438
68                     118                     102                     100      -0.208307056662512       -0.65443539739196       0.352745591468885
69                     120                     100              105.656854       0.223853615646145        1.18194601242279       -0.83541873282026
70                     120                     100              102.828427      -0.229099064845282       0.513325583254625     0.00139197836655388
71                     120                     100                     100       0.222345915395239        1.18371367543847       0.833069093474701
72                     122                     102              105.656854      -0.289925043264177      -0.687974600378229      -0.330225705098774
73                     122                     102              102.828427       0.294356020163217       0.244298071096122    -0.00106937190941725
74                     122                     102                     100      -0.286852041594523       -0.68871666753522       0.332061263505343
75                     124                     100              105.656854       0.326875485164388        1.23689171045632      -0.852088196349601
76                     124                     100              102.828427      -0.323403174172737       0.459393714555825     0.00024032995921149
77                     124                     100                     100       0.325586812606944        1.23672070278515       0.851628794061119
78                     126                     102              105.656854       -0.46205182810414      -0.728377881980405       -0.33219529582647
79                     126                     102              102.828427       0.397547293166751       0.282121684861687    0.000565493080275481
80                     126                     102                     100      -0.460909913012455      -0.726769199618308       0.331348214189168
81                     128                     100              105.656854       0.708396332188397        1.34107729468902      -0.754663072104497
82                     128                     100              102.828427      -0.281051705855179       0.395824881059861   -0.000374528856402715
83                     128                     100                     100       0.708005266306958        1.34025003631342       0.755254364013959
84                     130                     102              105.656854       -1.34050939255618      -0.709192782889048      -0.755544573783124
85                     130                     102              102.828427      -0.395885636669155       0.281333393719249    0.000852656757872401
86                     130                     102                     100       -1.34062256199838      -0.707835310307516       0.754156320716092
87                     100                     104              105.656854       0.959392406661153       0.100399046781334      -0.808274813451161
88                     100                     104              102.828427       0.727491017726169     -0.0674758588398135    -0.00124813679645895
89                     100                     104                     100       0.958617239570556      0.0988675758970378       0.810331575077782
90                     102                     106              105.656854      -0.514477639811212      -0.157808920978122      -0.383195731470962
91                     102                     106              102.828427      0.0655578420528803       0.148593523419444     0.00262750061513596
92                     102                     106                     100      -0.512560543178565      -0.154311927606174       0.378983594824312
93                     104                     104              105.656854       0.247331864997255       0.253854485496589      -0.388156257361931
94                     104                     104              102.828427      -0.179946140318189      -0.184966777464962    -0.00171808167768258
95                     104                     104                     100       0.247222470566282        0.25072015617952       0.390874350097104
96                     106                     106              105.656854      -0.233308647072763       -0.24728408204382      -0.505816584166693
97                     106                     106              102.828427       0.225007704845172        0.23434792662727     0.00359045106545547
98                     106                     106                     100      -0.233806605294557      -0.239449619521547       0.500009834413139
99                     108                     104              105.656854       0.171792527845832       0.339837915972831      -0.374849625837831
100                     108                     104              102.828427      -0.176209479725453      -0.269302630709183   -0.000605525460219211
101                     108                     104                     100       0.175489836777164       0.336902161492535       0.375721711881063
102                     110                     106              105.656854      -0.177171977903151      -0.294611239502755      -0.490472949859892
103                     110                     106              102.828427       0.189705517941287       0.286025502687868   -0.000910793487658518
104                     110                     106                     100      -0.189729859054008      -0.291835570162778       0.491993452625681
105                     112                     104              105.656854       0.164215270619559       0.377937672044795      -0.391632500579451
106                     112                     104              102.828427      -0.172527764899171      -0.313746133708289     0.00377050675784068
107                     112                     104                     100       0.170926000316706       0.383095326543102        0.38535918714467
108                     114                     106              105.656854      -0.184395332658127      -0.301728099382777      -0.463181837142592
109                     114                     106              102.828427       0.195687973220917       0.309868216491424     -0.0109522218214699
110                     114                     106                     100      -0.194349893566043       -0.32170490423252       0.482730537926282
111                     116                     104              105.656854       0.198208350814372       0.401581578077624      -0.408035501196057
112                     116                     104              102.828427      -0.203408363371742      -0.342432151632904     0.00678571150253616
113                     116                     104                     100       0.198192015765232       0.413236526448301       0.396833779749643
114                     118                     106              105.656854      -0.244874130298475      -0.324011161245147      -0.447311978446595
115                     118                     106              102.828427       0.245157955222542       0.332794210527059      -0.010924393443722
116                     118                     106                     100        -0.2348627108646      -0.343906010418736       0.466805897127506
117                     120                     104              105.656854       0.263194943536752       0.434630298347692      -0.422346822599587
118                     120                     104              102.828427      -0.266465009118337      -0.372264974289815     0.00375794372084794
119                     120                     104                     100       0.256493549056057       0.439753250184888        0.41609470992396
120                     122                     106              105.656854      -0.323012945558795      -0.364618771612834      -0.438705387925424
121                     122                     106              102.828427       0.322217212719323       0.358296824996994    -0.00089862807912126
122                     122                     106                     100      -0.310539244254183      -0.361813403738819       0.440205749154094
123                     124                     104              105.656854       0.369428543758148       0.465132059613649      -0.438177457500164
124                     124                     104              102.828427      -0.363449592468846      -0.398510309932727   -0.000599477250631184
125                     124                     104                     100       0.365756669312182       0.462211068459454       0.439039464131275
126                     126                     106              105.656854      -0.465919514770587      -0.371543754011918      -0.442709904253445
127                     126                     106              102.828427       0.401323333965298       0.362575217548026     0.00356251875831736
128                     126                     106                     100      -0.465431987435116      -0.363771573480675       0.436952139027194
129                     128                     104              105.656854       0.727839215912546       0.463335989418878      -0.330307727053217
130                     128                     104              102.828427      -0.282649956677771      -0.397645821196423    -0.00170370673877505
131                     128                     104                     100       0.727946874083163       0.460226517266594       0.333003113931911
132                     130                     106              105.656854       -1.23592338428762      -0.329054049994603      -0.854024273086702
133                     130                     106              102.828427       -0.45910074426912       0.324325632964508     0.00260602846460996
134                     130                     106                     100       -1.23782304446042      -0.325586111529179       0.849846111189115
135                     100                     108              105.656854         1.0637658777244       0.116890250247627      -0.799645099684784
136                     100                     108              102.828427       0.637781922244084      -0.117055104529171    -0.00283999237838422
137                     100                     108                     100         1.0608244812154       0.114297341201972       0.804245840512317
138                     102                     110              105.656854       -0.59154079521826      -0.155729598538549      -0.379893363799722
139                     102                     110              102.828427       0.139413901908655       0.156325521851336     0.00610877192731041
140                     102                     110                     100      -0.584001069633682      -0.150492108096109       0.370065309252201
141                     104                     108              105.656854       0.340020898674341       0.191010813506924      -0.369763806303032
142                     104                     108              102.828427      -0.267601748875493      -0.188330952683029    -0.00596300909941337
143                     104                     108                     100       0.334802052329247       0.182360314132173       0.379475124535275
144                     106                     110              105.656854      -0.302931574380746      -0.221085342855392       -0.51158292072241
145                     106                     110              102.828427       0.283798860623164       0.210698145028419      0.0138367834912474
146                     106                     110                     100       -0.28834848124298      -0.199408492407375       0.484439619532393
147                     108                     108              105.656854       0.221285707752705       0.256944909233593      -0.354174092318943
148                     108                     108              102.828427      -0.227667689531848      -0.245633171148305    -0.00701201829251553
149                     108                     108                     100       0.227265432951428       0.236082792757308       0.368747906751907
150                     110                     110              105.656854      -0.165895553961662      -0.266265446133431      -0.503950455437511
151                     110                     110              102.828427        0.21237043059477       0.243745436304608     0.00746959575303987
152                     110                     110                     100      -0.220462737520138      -0.232598486436846       0.474952511162639
153                     112                     108              105.656854       0.164689136823288       0.255163464696252      -0.396736514101442
154                     112                     108              102.828427      -0.194370011838341      -0.268994586605174     0.00975794697523849
155                     112                     108                     100       0.199936090368521       0.267218245133052        0.37729991588472
156                     114                     110              105.656854      -0.168621004824289      -0.178439472996592      -0.357286335716222
157                     114                     110              102.828427       0.206161092497739         0.2466092221777     -0.0314646346972984
158                     114                     110                     100      -0.212474915945748      -0.249421908330147        0.47148478419419
159                     116                     108              105.656854       0.220307466967569       0.241276973666922      -0.436384763954259
160                     116                     108              102.828427      -0.226130594000692      -0.280056015893172      0.0239605903567105
161                     116                     108                     100       0.220194032849408       0.285724908550913       0.387153618418468
162                     118                     110              105.656854      -0.294561413771381      -0.189681520759809      -0.340319733795682
163                     118                     110              102.828427       0.269304863479738       0.257977311253781     -0.0313311230625815
164                     118                     110                     100      -0.250235516911603      -0.260397554107304       0.454094568856466
165                     120                     108              105.656854       0.310288179770226         0.2890216683423      -0.431364943023804
166                     120                     108              102.828427      -0.293823962568198      -0.303712798463835     0.00967109143951624
167                     120                     108                     100       0.275119966452289       0.300819612006324       0.412134892791293
168                     122                     110              105.656854       -0.37002620334499      -0.300005852557346      -0.447594220377728
169                     122                     110              102.828427       0.337168929172251       0.278366190449493     0.00754225167748211
170                     122                     110                     100       -0.31628429335453      -0.266102421192239       0.418501069322803
171                     124                     108              105.656854       0.375511484116236       0.326434522081998      -0.426626561004372
172                     124                     108              102.828427      -0.369255070856234      -0.317525060003935    -0.00697659157583857
173                     124                     108                     100       0.369646501481702       0.305717387083758       0.441076597396257
174                     126                     110              105.656854      -0.432588933571512      -0.276816385908221      -0.440004731964471
175                     126                     110              102.828427       0.379826325452455       0.268406125217058      0.0137341819696823
176                     126                     110                     100       -0.44707427153621      -0.255321830021168       0.413144787546541
177                     128                     108              105.656854       0.686527783282231       0.295067520520747      -0.325087961616143
178                     128                     108              102.828427      -0.246174233959113      -0.295835651002089     -0.0059136800933863
179                     128                     108                     100       0.691700629899085       0.286494040935057       0.334713189141571
180                     130                     110              105.656854       -1.17797362383257      -0.228063537026203      -0.839851709438088
181                     130                     110              102.828427      -0.513514063280254       0.231069628986664     0.00605890693558433
182                     130                     110                     100       -1.18544429605861      -0.222867628828145       0.830105702973979
183                     100                     112              105.656854        1.11924835202464       0.137697985160926       -0.80610462860848
184                     100                     112              102.828427        0.58290618419495      -0.139811369214891    -0.00477584033104707
185                     100                     112                     100        1.11297953025655       0.135615311569315       0.813787955475895
186                     102                     114              105.656854      -0.640044589959328      -0.169180227086418      -0.371911121694132
187                     102                     114              102.828427       0.185568357347412       0.172296529043341     0.00910253038369604
188                     102                     114                     100      -0.626794968157771        -0.1673363377617       0.357166678352293
189                     104                     112              105.656854       0.404504213795589       0.186147513769667      -0.372778708414575
190                     104                     112              102.828427      -0.323139874323578      -0.185012222529999     -0.0131582343017058
191                     104                     112                     100       0.385091544772793       0.177299241636363       0.395708831891572
192                     106                     114              105.656854      -0.356624143042122      -0.204071662942513      -0.518687650050024
193                     106                     114              102.828427       0.322247234838058       0.206298460684748      0.0244846526220007
194                     106                     114                     100      -0.322523987081786      -0.199190258338979       0.466054362544762
195                     108                     112              105.656854       0.292190022864054       0.248876877445104      -0.287197098100046
196                     108                     112              102.828427      -0.261424879665636      -0.221964352734905     -0.0247741616928671
197                     108                     112                     100       0.260805479481374       0.210771984057418        0.39005452970705
198                     110                     114              105.656854      -0.149158257573296      -0.169604396855983      -0.728957347247401
199                     110                     114              102.828427       0.221771586355069        0.22529454273915      0.0154925703996567
200                     110                     114                     100      -0.238908628135872      -0.220094448850735       0.456416187431799
201                     112                     112              105.656854      0.0763065949663554       0.223729676708823      -0.429202385825363