ITEM: TIMESTEP
0
ITEM: NUMBER OF ATOMS
422
ITEM: BOX BOUNDS pp pp pp
0.0000000000000000e+00 3.2000000000000000e+01
0.0000000000000000e+00 3.2000000000000000e+01
0.0000000000000000e+00 3.2000000000000000e+01
ITEM: ATOMS id xu yu zu fx fy fz
1        13.1459321938386        16.4835208156773                 8.65685     -0.0101202817227085     -0.0154609881170234      0.0207185773480991
2        18.8274848400711        16.4892262416344                 8.65685      0.0102020033273993     -0.0160795509907704      0.0219342887668165
3         17.402344993917         16.487795112765                 8.65685    -0.00914830217658666     -0.0197395665448674      0.0294910445988987
4         14.571072038949        16.4849519429358                 8.65685     0.00888225799229697     -0.0200229958955959      0.0301142995272816
5        16.7010751677692        15.2497248501637                 8.65685     -0.0124166685784201      0.0120655006869626      0.0160434380914015
6        15.2748269908674        15.2482926087119                 8.65685      0.0127716109905952      0.0125680782779064      0.0171207446836105
7        15.2723418650276        17.7230222053877                 8.65685      0.0328318136379314    -0.00745221075940175      0.0611918751168002
8        16.6985900414216        17.7244544465825                 8.65685     -0.0318690350190762    -0.00709412373027578      0.0579488614883912
9        14.5177569207574        14.0484462411751                 8.65685      0.0338108927403564     0.00315942211062319       0.170186048596124
10        17.4605534827313        14.0514014038861                 8.65685     -0.0347162716502668     0.00330327343929458       0.167449356828064
11        14.5128635507729         18.921345651893                 8.65685      0.0197175784063675      0.0353458777487532      0.0936294272933719
12        17.4556601106552        18.9243008141789                 8.65685     -0.0204256844970129      0.0346044295556783      0.0910258771470894
13        13.1273112602358        14.0624445878976                 8.65685     -0.0416544528749117     0.00298157122320464       0.120109889148499
14        13.1224488081137        18.9045547622743                 8.65685     -0.0249622026290362      0.0257179839134786      0.0657859607696793
15         18.850968226168        14.0681922935721                 8.65685      0.0415813564588862     0.00333182106584164       0.123279896576562
16        18.8461057714963        18.9103024705805                 8.65685      0.0247521883464518      0.0266028261664675      0.0679932572378602
17         12.426795838139        17.6943199436399                 8.65685     -0.0205949120610344    -0.00505901037291254      0.0324273703563983
18        12.4292290587396        15.2712798150634                 8.65685    -0.00777823985403374     0.00734471091621316     0.00616941558880887
19        19.5466211966922        15.2784271122721                 8.65685     0.00809195784515122     0.00760552147013472     0.00662809607183259
20        19.5441879750283        17.7014672429596                 8.65685      0.0219465042827162    -0.00518456762006039      0.0346761811247858
21        20.9551350226241        15.3244350858224                 8.65685      -0.013381342848176      0.0163190415413327       0.023651401190039
22        20.9527913622507        17.6582882295758                 8.65685     -0.0375033216191591     -0.0123359516021793       0.087034192552016
23        11.0206256731611        15.3144588294926                 8.65685      0.0137396413768848      0.0170467664967147      0.0253287620329011
24        11.0182820131454        17.6483119722736                 8.65685      0.0377545058137797     -0.0131192519833595      0.0904306735466471
25        21.5867264607395        16.4919970781177                 8.65685    -0.00275777922588028    -0.00906467021775347     0.00599460987858857
26        10.3866905744716        16.4807499786644                 8.65685     0.00256698441432162    -0.00899906552422693     0.00589262824432733
27         21.609196045824        18.6859221409264                 8.65685    -0.00838953304062284      0.0147876878724273      0.0476063798516439
28        21.6136022867001        14.2981215696947                 8.65685     -0.0106674655089308      0.0082235941190869      0.0652344444213418
29        10.3598147507275        18.6746254872963                 8.65685     0.00791905040970643      0.0149125965199411      0.0491757936785427
30        10.3642209902605        14.2868249167297                 8.65685      0.0102066086506931     0.00803221554832842      0.0664521768762201
31        12.5998668222426        13.1154548000933                 8.65685    -0.00170676964103523   -0.000935019610286988    -0.00718586482325699
32        12.5931035005993        19.8504833212092                 8.65685   -1.42111483956153e-05    0.000120634902248257     -0.0100986121081292
33        19.3803135329519        13.1222637346313                 8.65685     0.00177569494399726    -0.00098726095479276    -0.00700344790068337
34        19.3735502071424         19.857292260389                 8.65685    2.03075547541981e-05    0.000130592817886521     -0.0100698702027785
35        14.9622865728669        13.0689605638796                 8.65685     0.00236961108840628    -0.00228084867947748      -0.003518390375859
36         14.955425108682        19.9017221461408                 8.65685    0.000155277600176917    0.000254504731445615    -0.00951380541637545
37        17.0179919240215        13.0710249097393                 8.65685    -0.00236007860007403    -0.00221268505608938    -0.00370012150548451
38         17.011130457531        19.9037864905846                 8.65685   -0.000141925532668119    0.000234951936066846    -0.00957434690483101
39                       0                       0                5.656854                       0                       0                       0
40                       0                       0                2.828427                       0                       0                       0
41                       0                       0                       0                       0                       0                       0
42                       2                       2                5.656854                       0                       0                       0
43                       2                       2                2.828427                       0                       0                       0
44                       2                       2                       0                       0                       0                       0
45                       4                       0                5.656854                       0                       0                       0
46                       4                       0                2.828427                       0                       0                       0
47                       4                       0                       0                       0                       0                       0
48                       6                       2                5.656854    7.85629330136814e-09    1.66978815879943e-08    4.17037100011162e-09
49                       6                       2                2.828427    2.12131902804354e-10    4.79763468750885e-10    2.36325072196796e-10
50                       6                       2                       0                       0                       0                       0
51                       8                       0                5.656854    9.12677069273563e-10   -2.07459655926434e-09    6.43957864884301e-10
52                       8                       0                2.828427    5.38313171220429e-10   -1.91396423710797e-09    8.79150989494654e-10
53                       8                       0                       0                       0                       0                       0
54                      10                       2                5.656854    3.66417788866606e-08      1.464099594009e-07    3.74320072752975e-08
55                      10                       2                2.828427    1.33761642324295e-09    5.54838013917971e-09    2.73487470551741e-09
56                      10                       2                       0    3.26793922538454e-10    1.10574039433584e-09    8.62203949548279e-10
57                      12                       0                5.656854    1.69531391121405e-09    -8.2255424204441e-09    2.97220818556731e-09
58                      12                       0                2.828427    1.71057445181288e-09   -1.06465758767561e-08    6.25742195966706e-09
59                      12                       0                       0    2.87918909696833e-12   -5.89791763489235e-11     4.2024213495462e-11
60                      14                       2                5.656854    2.31834687420994e-08    3.59777850960545e-07    9.33988507152738e-08
61                      14                       2                2.828427    8.49308511627792e-10    1.33958152994646e-08    6.67245024669311e-09
62                      14                       2                       0    1.37129739046295e-10    5.26384025070119e-09    3.96212042246548e-09
63                      16                       0                5.656854   -2.69625309176807e-12   -1.18913303323967e-08    4.46256218272652e-09
64                      16                       0                2.828427   -4.61902181312015e-12   -1.63670706247658e-08    1.00984978489066e-08
65                      16                       0                       0    -1.3516713607209e-13   -1.20971911896891e-10    8.65681330875051e-11
66                      18                       2                5.656854   -2.37469334457264e-08    3.57751759146389e-07    9.28606935148583e-08
67                      18                       2                2.828427   -8.70377735686113e-10    1.33269437990828e-08    6.63678202467508e-09
68                      18                       2                       0   -1.46120554189977e-10    5.23950009131656e-09    3.94267055698245e-09
69                      20                       0                5.656854   -1.70461480701733e-09   -8.25130207165367e-09    2.96757118617115e-09
70                      20                       0                2.828427   -1.72804696593776e-09   -1.06700024315111e-08    6.25607730811216e-09
71                      20                       0                       0   -3.06104160510776e-12   -5.93333001517366e-11    4.23002422880528e-11
72                      22                       2                5.656854   -3.63144897273135e-08    1.44023189770764e-07    3.68083014250293e-08
73                      22                       2                2.828427   -1.32731609024996e-09    5.46482633095252e-09    2.69235059860299e-09
74                      22                       2                       0   -3.24384071116537e-10    1.09133898354381e-09    8.50558589682184e-10
75                      24                       0                5.656854    -9.1051033787688e-10   -2.06934637883077e-09    6.39562081321649e-10
76                      24                       0                2.828427   -5.41591515287086e-10   -1.91245734274685e-09    8.78750203854299e-10
77                      24                       0                       0                       0                       0                       0
78                      26                       2                5.656854   -7.68619203826499e-09    1.62780596863203e-08    4.06288381677189e-09
79                      26                       2                2.828427   -2.07853439777913e-10    4.68385490623126e-10    2.30550762460844e-10
80                      26                       2                       0                       0                       0                       0
81                      28                       0                5.656854                       0                       0                       0
82                      28                       0                2.828427                       0                       0                       0
83                      28                       0                       0                       0                       0                       0
84                      30                       2                5.656854                       0                       0                       0
85                      30                       2                2.828427                       0                       0                       0
86                      30                       2                       0                       0                       0                       0
87                       0                       4                5.656854    3.24637116584287e-12    1.88117730624171e-10    5.48321145981531e-11
88                       0                       4                2.828427                       0                       0                       0
89                       0                       4                       0                       0                       0                       0
90                       2                       6                5.656854      5.805105669585e-08    5.57507590752107e-08    1.96532431363358e-08
91                       2                       6                2.828427    2.18591343644111e-09    2.10147994360811e-09    1.44052115847214e-09
92                       2                       6                       0    6.98849835328624e-10    6.92383215985946e-10    7.23299659825964e-10
93                       4                       4                5.656854    6.04826916418377e-09    8.60241439748323e-09    2.49986103799896e-09
94                       4                       4                2.828427    6.93175632334153e-09    9.93032942754765e-09    5.64983282426358e-09
95                       4                       4                       0    6.23284041063113e-11      1.007446757996e-10    8.47814125112013e-11
96                       6                       6                5.656854    1.77227237407962e-06    2.74807755121849e-06    9.89067087050619e-07
97                       6                       6                2.828427    5.22583533026147e-08    8.01051342577127e-08    5.56555192984556e-08
98                       6                       6                       0      2.161978919711e-08     3.2625020738135e-08    3.37488259879618e-08
99                       8                       4                5.656854     6.4905173957118e-08    1.57832605334917e-07    4.70682844478612e-08
100                       8                       4                2.828427    6.98118936048241e-08    1.68391703656496e-07    9.72740634170982e-08
101                       8                       4                       0    1.01774867495215e-09    2.46085560263639e-09     2.1127320327618e-09
102                      10                       6                5.656854    1.09151697177609e-05    3.37966976986196e-05    1.27596317939976e-05
103                      10                       6                2.828427    2.49715461388568e-07    7.60830112651555e-07    5.50378386494551e-07
104                      10                       6                       0    8.30372247096315e-08    2.47640730409939e-07    2.62361940439728e-07
105                      12                       4                5.656854    1.27323724575268e-07    7.82725556835437e-07     2.4033399785462e-07
106                      12                       4                2.828427    1.23299204768783e-07    7.40178856302221e-07    4.37927044087199e-07
107                      12                       4                       0    1.67504011986606e-09    9.61986614826424e-09     8.4317117129534e-09
108                      14                       6                5.656854     6.2345978867478e-06    9.40027502538845e-05    3.65608250365529e-05
109                      14                       6                2.828427    1.40843527126493e-07    1.89746290364332e-06    1.41069901060293e-06
110                      14                       6                       0     4.6299041996341e-08    5.58786463482429e-07    6.05772310541784e-07
111                      16                       4                5.656854   -1.20326820916116e-09    1.17176965608793e-06    3.63118758185677e-07
112                      16                       4                2.828427   -1.11817795547634e-09    1.08644320757588e-06    6.48536980953131e-07
113                      16                       4                       0   -1.40572799365237e-11     1.3585155037786e-08    1.20294457946657e-08
114                      18                       6                5.656854   -6.40891795445116e-06    9.34397796284167e-05    3.63273292287247e-05
115                      18                       6                2.828427   -1.44400693493115e-07    1.88768656102035e-06    1.40292040700599e-06
116                      18                       6                       0   -4.73646668228119e-08    5.56353754344895e-07    6.02937630918108e-07
117                      20                       4                5.656854   -1.27442270426619e-07    7.73536300908651e-07    2.37395041404714e-07
118                      20                       4                2.828427   -1.23526190178594e-07    7.32396073737923e-07     4.3311954788079e-07
119                      20                       4                       0   -1.67950458652478e-09     9.5319761561296e-09    8.35095730301277e-09
120                      22                       6                5.656854   -1.07897451378878e-05    3.31681748170799e-05    1.25112797424676e-05
121                      22                       6                2.828427   -2.47436791556837e-07    7.48563756519361e-07    5.41063548772484e-07
122                      22                       6                       0   -8.24719655570111e-08    2.44258161441247e-07    2.58583172195271e-07
123                      24                       4                5.656854    -6.3759561195368e-08    1.54291282142043e-07    4.59790027360796e-08
124                      24                       4                2.828427   -6.87169376367734e-08    1.64955739734065e-07    9.52224147149288e-08
125                      24                       4                       0   -1.00416510211605e-09     2.4165778307695e-09    2.07325336291518e-09
126                      26                       6                5.656854   -1.72728680303295e-06    2.66920049706491e-06    9.59693071280996e-07
127                      26                       6                2.828427   -5.10856326861688e-08    7.80476068714137e-08    5.41730476505052e-08
128                      26                       6                       0   -2.12066749569262e-08      3.189917352488e-08    3.29661197403168e-08
129                      28                       4                5.656854   -5.88065174033335e-09    8.34280687656789e-09    2.42241582797293e-09
130                      28                       4                2.828427   -6.75384308221225e-09    9.65193614656319e-09    5.48667410324453e-09
131                      28                       4                       0   -6.08715386319315e-11    9.81558827225151e-11    8.25122084251715e-11
132                      30                       6                5.656854   -5.61541157630732e-08    5.38430901543567e-08    1.89598721305406e-08
133                      30                       6                2.828427   -2.12004856087169e-09    2.03490668237476e-09    1.39337228963077e-09
134                      30                       6                       0   -6.80016283635145e-10    6.72858357531449e-10    7.01946075804528e-10
135                       0                       8                5.656854    2.63548427859027e-10    9.10778008800717e-09    4.05919194709847e-09
136                       0                       8                2.828427    2.88457407856412e-10    1.08071245080391e-08    9.40855523840613e-09
137                       0                       8                       0    2.85843182731693e-12    1.17438184622458e-10    1.61567503867516e-10
138                       2                      10                5.656854    2.28988909983342e-06    1.27852368669767e-06    7.92076064080882e-07
139                       2                      10                2.828427     6.7130101332398e-08    3.77356708689582e-08    4.47217266457744e-08
140                       2                      10                       0    2.81385367997572e-08    1.58877880252677e-08     2.7553237283235e-08
141                       4                       8                5.656854    6.19665414884666e-07     5.8999935143986e-07    2.68994031599004e-07
142                       4                       8                2.828427    5.47789109466377e-07    5.18704817824495e-07    4.55013062363085e-07
143                       4                       8                       0     6.6657488517037e-09    6.24278911650482e-09    8.11509016667451e-09
144                       6                      10                5.656854    0.000173932951164514    0.000163639486277312    0.000106635769723564
145                       6                      10                2.828427     2.7077550784999e-06    2.51534634613955e-06    3.10683402996725e-06
146                       6                      10                       0    6.41335855360476e-07    5.87898842699139e-07    1.04860087837613e-06
147                       8                       8                5.656854    1.26490101612847e-05    2.24258680710907e-05    1.07063268116387e-05
148                       8                       8                2.828427    7.32371898694634e-06    1.25998920171044e-05     1.1508565270688e-05
149                       8                       8                       0    6.06437499106708e-08    1.01409394596969e-07    1.35048670494567e-07
150                      10                      10                5.656854     0.00171374625982417     0.00368199222161017     0.00262297748725413
151                      10                      10                2.828427    1.61237202029323e-05    3.31565348034766e-05    4.39444183638739e-05
152                      10                      10                       0    2.54688092860019e-06    4.96570717031758e-06    9.35460754751116e-06
153                      12                       8                5.656854    3.25533944426803e-05    0.000157763300460459    8.12008968940037e-05
154                      12                       8                2.828427    1.41803514601995e-05    6.53773744185748e-05    6.33282696628634e-05
155                      12                       8                       0    9.46079053508389e-08     4.1116555641155e-07    5.72774925179796e-07
156                      14                      10                5.656854    0.000664061546381002      0.0105450321824706     0.00820945066127859
157                      14                      10                2.828427    6.76544437880024e-06    8.09084777219397e-05    0.000115261310151076
158                      14                      10                       0    1.14985006576537e-06    1.05987299052611e-05    2.10599613611666e-05
159                      16                       8                5.656854   -2.57170081548962e-07    0.000233025244839991    0.000122477127287231
160                      16                       8                2.828427   -1.07736980151132e-07    9.35622733831971e-05    9.24659564602859e-05
161                      16                       8                       0   -6.88230999492004e-10    5.72707492573246e-07    8.12068858582559e-07
162                      18                      10                5.656854   -0.000692336383968768      0.0105004521249891     0.00816740589188891
163                      18                      10                2.828427   -6.97724405591265e-06     8.0607041123572e-05    0.000114740069558737
164                      18                      10                       0   -1.17746648937853e-06    1.05659526930975e-05     2.0980990494825e-05
165                      20                       8                5.656854   -3.25675116330607e-05    0.000155739634581706    8.00763664170786e-05
166                      20                       8                2.828427   -1.42109030797512e-05    6.47038639710322e-05    6.26186360672977e-05
167                      20                       8                       0   -9.49223094425225e-08    4.07733230019068e-07    5.67539147017245e-07
168                      22                      10                5.656854     -0.0016927936303906     0.00361233211107885     0.00256811751956128
169                      22                      10                2.828427   -1.59879100695661e-05    3.26553470415762e-05    4.32057252775741e-05
170                      22                      10                       0   -2.53274450414449e-06    4.90626868006448e-06    9.22942869232158e-06
171                      24                       8                5.656854   -1.23818308676795e-05    2.18461239866379e-05    1.04150401941697e-05
172                      24                       8                2.828427   -7.19803918652467e-06    1.23267753551533e-05    1.12449060457885e-05
173                      24                       8                       0   -5.98193264263385e-08    9.95887463779012e-08    1.32473912429687e-07
174                      26                      10                5.656854   -0.000168786263751025     0.00015836380361506    0.000102986878673652
175                      26                      10                2.828427   -2.64292113580536e-06    2.44845599723071e-06    3.01880970346925e-06
176                      26                      10                       0   -6.29048581729644e-07    5.75075492927784e-07    1.02414019924688e-06
177                      28                       8                5.656854   -5.99969857821939e-07    5.70068964815427e-07    2.59542574238546e-07
178                      28                       8                2.828427   -5.32446013803591e-07    5.03131681765626e-07    4.40775345786481e-07
179                      28                       8                       0   -6.50655988528367e-09    6.08125939941477e-09    7.89516632391914e-09
180                      30                      10                5.656854   -2.20810691006511e-06    1.23242105471306e-06    7.62179761632237e-07
181                      30                      10                2.828427   -6.49874238388876e-08    3.65081806383791e-08    4.31988216740019e-08
182                      30                      10                       0   -2.73660593412117e-08    1.54336390939155e-08    2.67248202641165e-08
183                       0                      12                5.656854    3.49774159650498e-09    5.65869032066272e-08    5.23704457330601e-08
184                       0                      12                2.828427    3.53995549782779e-09    6.37964358597093e-08    1.12325941819673e-07
185                       0                      12                       0    3.81081608306796e-11    7.45324629960155e-10    2.11532659819595e-09
186                       2                      14                5.656854    1.69710059075986e-05    3.10236698148777e-06    5.87939217342942e-06
187                       2                      14                2.828427    4.14164270980335e-07    7.98419061001789e-08    2.77515233573902e-07
188                       2                      14                       0     1.4536970607326e-07    2.92414902841955e-08    1.42215001648892e-07
189                       4                      12                5.656854      1.788647098929e-05    7.88189019478996e-06    7.98047713527611e-06
190                       4                      12                2.828427    1.02440274225629e-05    4.64754661871739e-06    8.72224280270218e-06
191                       4                      12                       0    8.41977545722254e-08    3.91758892691856e-08    1.04193059618278e-07
192                       6                      14                5.656854     0.00272646065093296    0.000743516719816109      0.0017199672716448
193                       6                      14                2.828427    2.59287876375179e-05    7.81367286563549e-06    3.06762190471865e-05
194                       6                      14                       0    4.04787526943633e-06    1.30292595535175e-06    6.81028237481428e-06
195                       8                      12                5.656854    0.000918099460661909    0.000840929371732311    0.000933825633129801
196                       8                      12                2.828427    0.000215683316287756    0.000192079221006173    0.000387319654035024
197                       8                      12                       0    9.09825072890865e-07     7.8992297884693e-07    2.21761474076085e-06
198                      10                      14                5.656854    -0.00635692981103728     -0.0133482687823689     -0.0936674474074714
199                      10                      14                2.828427    0.000160179273768585    0.000124755226152558    0.000552433267647963
200                      10                      14                       0    1.54779049995242e-05    1.15283057063188e-05    6.57265097884046e-05
201                      12                      12                5.656854      0.0017122464812177      0.0052518732891375     0.00663679691065247