ITEM: TIMESTEP
0
ITEM: NUMBER OF ATOMS
422
ITEM: BOX BOUNDS pp pp pp
0.0000000000000000e+00 3.2000000000000000e+01
0.0000000000000000e+00 3.2000000000000000e+01
0.0000000000000000e+00 3.2000000000000000e+01
ITEM: ATOMS id xu yu zu fx fy fz
1        12.6459321938386        15.9835208156773                 8.65685    -0.00402628707985694    0.000264371125200155    -0.00048041957156393
2        18.3274848400711        15.9892262416344                 8.65685     0.00356539586923324    0.000531571164202993      0.0168960418226627
3         16.902344993917         15.987795112765                 8.65685    -0.00534928134076967    0.000297695340631232     0.00334113225257078
4         14.071072038949        15.9849519429358                 8.65685    0.000832102730377815    0.000791225627430128        0.01884431036324
5        16.2010751677692        14.7497248501637                 8.65685    -0.00740318687975627     0.00659955042083996      0.0123821728510208
6        14.7748269908674        14.7482926087119                 8.65685      0.0288896953858036      0.0279034644821682      0.0903606492871922
7        14.7723418650276        17.2230222053877                 8.65685      0.0280829831060951     -0.0282509178601364      0.0877644285545208
8        16.1985900414216        17.2244544465825                 8.65685    -0.00713120754282401    -0.00662032975792924       0.011755994215548
9        14.0177569207574        13.5484462411751                 8.65685     0.00120750880457598     -0.0307410028473386       0.178223072195225
10        16.9605534827313        13.5514014038861                 8.65685     -0.0356829133896804     -0.0155137023058063       0.082764830559787
11        14.0128635507729         18.421345651893                 8.65685    0.000889496734190649      0.0291665177894451       0.181543146167272
12        16.9556601106552        18.4243008141789                 8.65685     -0.0360892287766281      0.0147760944585733      0.0834445815223827
13        12.6273112602358        13.5624445878976                 8.65685     -0.0272376370040958    -0.00935369854233657      0.0459250363278991
14        12.6224488081137        18.4045547622743                 8.65685     -0.0275387480568687     0.00873658370010508      0.0464964830310484
15         18.350968226168        13.5681922935721                 8.65685      0.0223450831198985     -0.0275005844394849       0.165594674930935
16        18.3461057714963        18.4103024705805                 8.65685       0.022336463371262      0.0264860354208855        0.16809942975484
17         11.926795838139        17.1943199436399                 8.65685     0.00256285936705615    -0.00603250862318825     0.00909150679932912
18        11.9292290587396        14.7712798150634                 8.65685     0.00256542612050439     0.00600105503532253     0.00975083561038039
19        19.0466211966922        14.7784271122721                 8.65685      0.0275824759544824      0.0206527488943054      0.0604124316001695
20        19.0441879750283        17.2014672429596                 8.65685      0.0270629772673918     -0.0208285335415839      0.0591915203986765
21        20.4551350226241        14.8244350858224                 8.65685     -0.0151009837569282     0.00963773152515834      0.0202312118904836
22        20.4527913622507        17.1582882295758                 8.65685     -0.0147552046375708    -0.00961269292656253      0.0195534237242019
23        10.5206256731611        14.8144588294926                 8.65685       0.022375257220621      0.0349951704041365       0.106424832062023
24        10.5182820131454        17.1483119722736                 8.65685      0.0214558956021019     -0.0352334120028754       0.101958790844866
25        21.0867264607395        15.9919970781177                 8.65685    -0.00200292891484007    9.82823276284637e-05    -0.00575501070073167
26         9.8866905744716        15.9807499786644                 8.65685   -0.000474718372917534    0.000408106870243441   -0.000943835246181328
27         21.109196045824        18.1859221409264                 8.65685     -0.0168310632047525     0.00348401821339597      0.0399221913518715
28        21.1136022867001        13.7981215696947                 8.65685     -0.0167660545193002     -0.0037872690123988      0.0399797170386844
29        9.85981475072747        18.1746254872963                 8.65685    -0.00436824675575097     0.00544207466819825      0.0756504249052944
30        9.86422099026049        13.7868249167297                 8.65685    -0.00419310795099974    -0.00658544001482759      0.0748440435233878
31        12.0998668222426        12.6154548000933                 8.65685   -8.74584006535097e-05    4.22704289841889e-08     -0.0101075034692503
32        12.0931035005993        19.3504833212092                 8.65685   -9.22152422162012e-05    7.07819416718918e-06     -0.0100774304607659
33        18.8803135329519        12.6222637346313                 8.65685    0.000993262745962707    -0.00177564999890931    -0.00699632685069653
34        18.8735502071424         19.357292260389                 8.65685     0.00104855939827141     0.00184589527063564    -0.00680190191578457
35        14.4622865728669        12.5689605638796                 8.65685    0.000716486837161493    -0.00254754035948869    -0.00563469558831968
36         14.455425108682        19.4017221461408                 8.65685    0.000762145387713964     0.00267872633280403     -0.0052911878382581
37        16.5179919240215        12.5710249097393                 8.65685   -0.000416134081617104   -0.000380158546482815    -0.00955410675193445
38         16.511130457531        19.4037864905846                 8.65685   -0.000448577356137569    0.000389424841713698    -0.00951139797401185
39                       0                       0                5.656854                       0                       0                       0
40                       0                       0                2.828427                       0                       0                       0
41                       0                       0                       0                       0                       0                       0
42                       2                       2                5.656854    1.07297122597412e-09    1.48878672634214e-09    3.86797787991155e-10
43                       2                       2                2.828427                       0                       0                       0
44                       2                       2                       0                       0                       0                       0
45                       4                       0                5.656854                       0                       0                       0
46                       4                       0                2.828427                       0                       0                       0
47                       4                       0                       0                       0                       0                       0
48                       6                       2                5.656854     2.3003305893013e-08    4.98026394936645e-08    1.28907592268073e-08
49                       6                       2                2.828427    8.22147950791416e-10    1.81140485427338e-09    9.17107515114104e-10
50                       6                       2                       0    1.51682442341063e-10    2.63969387785309e-10    2.15265708128602e-10
51                       8                       0                5.656854    7.62224323233722e-10    5.91183254453091e-11    5.90026072100273e-10
52                       8                       0                2.828427    4.40560841314061e-10    2.77476594071257e-11    6.26812667062339e-10
53                       8                       0                       0                       0                       0                       0
54                      10                       2                5.656854    8.26228008448553e-08     3.5789036255968e-07     9.4823985163727e-08
55                      10                       2                2.828427    2.91869239714641e-09    1.27902434751227e-08    6.57878921737867e-09
56                      10                       2                       0    1.25921449567553e-09    5.66808521223163e-09    4.38482925321542e-09
57                      12                       0                5.656854    1.24495087425357e-09    2.31158094084428e-10    2.42725755967448e-09
58                      12                       0                2.828427    1.47067847259764e-09    2.59973424109809e-10    5.68881963508347e-09
59                      12                       0                       0                       0                       0                       0
60                      14                       2                5.656854    3.64122658646788e-08    7.70097213618323e-07    2.06765127326918e-07
61                      14                       2                2.828427    1.31142301273916e-09    2.68542459879304e-08    1.39671504708316e-08
62                      14                       2                       0    5.17730987536334e-10    1.13019625917516e-08    8.86196142143815e-09
63                      16                       0                5.656854    -2.6694975433683e-10    2.74272523255348e-10      3.280384564293e-09
64                      16                       0                2.828427    2.30255351075932e-11    3.18802237525518e-10    8.15317425996179e-09
65                      16                       0                       0                       0                       0                       0
66                      18                       2                5.656854   -5.98226876575558e-08    6.94314971872816e-07    1.86279552680262e-07
67                      18                       2                2.828427   -2.11661041260974e-09    2.42373425993994e-08    1.25875006676078e-08
68                      18                       2                       0   -9.18324040792054e-10    1.08762720851133e-08    8.48857463004044e-09
69                      20                       0                5.656854   -1.23639427344645e-09    1.34070024450306e-10    1.86615558167058e-09
70                      20                       0                2.828427   -1.42198167683116e-09    1.31508809783976e-10    3.78167875486807e-09
71                      20                       0                       0                       0                       0                       0
72                      22                       2                5.656854   -6.92487715108676e-08    2.40733048461041e-07     6.3433034251536e-08
73                      22                       2                2.828427    -2.4435569042144e-09    8.68099447839987e-09     4.4478234906863e-09
74                      22                       2                       0   -9.51315119900598e-10    3.53464744946384e-09    2.73718613898871e-09
75                      24                       0                5.656854   -4.14931424462021e-10    1.76955563510241e-11    2.82145596308313e-10
76                      24                       0                2.828427   -3.32106105153221e-10    1.20164907397715e-11    3.77835038530968e-10
77                      24                       0                       0                       0                       0                       0
78                      26                       2                5.656854   -1.29812868817838e-08    2.43492403367728e-08    6.28062238017873e-09
79                      26                       2                2.828427   -3.14947269316786e-10    6.34250350149114e-10    3.24487653505153e-10
80                      26                       2                       0                       0                       0                       0
81                      28                       0                5.656854                       0                       0                       0
82                      28                       0                2.828427                       0                       0                       0
83                      28                       0                       0                       0                       0                       0
84                      30                       2                5.656854                       0                       0                       0
85                      30                       2                2.828427                       0                       0                       0
86                      30                       2                       0                       0                       0                       0
87                       0                       4                5.656854    1.77035133129816e-10    3.54856708713219e-10    1.08745571328354e-10
88                       0                       4                2.828427                       0                       0                       0
89                       0                       4                       0                       0                       0                       0
90                       2                       6                5.656854    1.67625083127117e-07    1.60606671392551e-07    5.97779576569542e-08
91                       2                       6                2.828427    5.90640390053456e-09    5.64342181377437e-09    4.09030073873549e-09
92                       2                       6                       0    1.90312394245779e-09    1.77987172341763e-09    2.01894834807503e-09
93                       4                       4                5.656854    1.64228858603809e-08    2.38510419535524e-08    7.27449991231323e-09
94                       4                       4                2.828427    1.93890847413423e-08    2.82493161791729e-08    1.67182268926569e-08
95                       4                       4                       0    1.97253277655943e-10    2.92586410794944e-10     2.6654230677949e-10
96                       6                       6                5.656854      4.596313836414e-06    7.32850861280179e-06    2.80937314068456e-06
97                       6                       6                2.828427    1.22061152492748e-07    1.91504151502435e-07    1.41551935560769e-07
98                       6                       6                       0    4.57141371217805e-08    7.10368481872662e-08     7.7538371596092e-08
99                       8                       4                5.656854    1.56712369602425e-07    4.00664176244441e-07     1.2606659080875e-07
100                       8                       4                2.828427    1.56284236199873e-07     3.9626731427132e-07    2.40517661351494e-07
101                       8                       4                       0    2.07000741131586e-09    5.28596825574227e-09    4.76513865593915e-09
102                      10                       6                5.656854    2.37507050339575e-05    7.99243722616933e-05    3.23418579010375e-05
103                      10                       6                2.828427    4.81482444708209e-07    1.58913389309874e-06    1.22812309172887e-06
104                      10                       6                       0     1.4321659629634e-07    4.60902946294191e-07    5.19541667583791e-07
105                      12                       4                5.656854    2.40668942344156e-07     1.7400844186691e-06    5.64157911428736e-07
106                      12                       4                2.828427    2.17691658405823e-07    1.51102175002611e-06    9.42392942250408e-07
107                      12                       4                       0     2.6996355545452e-09    1.82884105570274e-08    1.67908517990479e-08
108                      14                       6                5.656854     8.5000083582766e-06    0.000189274062495038     7.8799434254315e-05
109                      14                       6                2.828427    1.80247926584207e-07    3.42644084843147e-06    2.71902044283027e-06
110                      14                       6                       0     5.5163229743191e-08    9.11417050444485e-07    1.05198669197719e-06
111                      16                       4                5.656854    -3.7308677569286e-08    2.32738299611122e-06    7.60218371528636e-07
112                      16                       4                2.828427   -3.54102418695173e-08    1.99359266049876e-06    1.25246261735846e-06
113                      16                       4                       0   -4.44179401410137e-10    2.38314468506887e-08    2.20240657634738e-08
114                      18                       6                5.656854   -1.60527678855599e-05     0.00017215216004654    7.13712288456191e-05
115                      18                       6                2.828427    -3.2206486658685e-07    3.12854792001418e-06    2.47260602913505e-06
116                      18                       6                       0   -9.51496356485261e-08    8.36833612745024e-07    9.62031994322135e-07
117                      20                       4                5.656854   -2.68539972106582e-07    1.35400230076187e-06     4.3643583205315e-07
118                      20                       4                2.828427   -2.43200104204278e-07    1.19966678264862e-06    7.44101560215145e-07
119                      20                       4                       0   -3.07388977151148e-09    1.47771231071903e-08    1.35173667638783e-08
120                      22                       6                5.656854   -1.86899900186255e-05      4.966780476628e-05    1.98017294837638e-05
121                      22                       6                2.828427    -4.0204625284235e-07    1.05022233375999e-06    8.01661374063164e-07
122                      22                       6                       0   -1.25935765880496e-07    3.21834458587263e-07    3.59330146258398e-07
123                      24                       4                5.656854   -1.01210645472087e-07    2.18865688240416e-07    6.81451816985617e-08
124                      24                       4                2.828427   -1.05517285926906e-07    2.26235303817708e-07    1.36294367679565e-07
125                      24                       4                       0   -1.48507729583963e-09     3.1528900247417e-09    2.83057109113836e-09
126                      26                       6                5.656854   -2.24777145108482e-06    3.09258724172655e-06    1.17282424514734e-06
127                      26                       6                2.828427   -6.47451236834557e-08    8.80580433073722e-08    6.44500998659119e-08
128                      26                       6                       0   -2.61347105217253e-08     3.4911789246046e-08    3.80829316123538e-08
129                      28                       4                5.656854   -7.28738956052607e-09    9.38244280018179e-09    2.84870336211431e-09
130                      28                       4                2.828427   -8.31951418940873e-09     1.0732297309385e-08    6.38777937006824e-09
131                      28                       4                       0   -7.86007789129368e-11    1.11834956289885e-10    9.88085761614257e-11
132                      30                       6                5.656854   -5.57185299110762e-08    5.00947633369578e-08    1.85695688384043e-08
133                      30                       6                2.828427   -1.98208496742846e-09    1.74388386596163e-09    1.25766496527238e-09
134                      30                       6                       0   -6.98213781276912e-10    6.12706759667608e-10    6.80177971710715e-10
135                       0                       8                5.656854    1.50239966272906e-08    1.55144388562255e-08    7.42918634805948e-09
136                       0                       8                2.828427     1.7559710610515e-08    1.83517951268791e-08    1.71900792691968e-08
137                       0                       8                       0    2.22383314642649e-10     1.3046071326967e-10    1.95163814685926e-10
138                       2                      10                5.656854    6.06517663296126e-06    3.22065810659031e-06    2.21336854277792e-06
139                       2                      10                2.828427    1.60077231831048e-07    8.59313263943292e-08    1.12300822031881e-07
140                       2                      10                       0    5.99260882955615e-08    3.25513621760035e-08    6.19566277543865e-08
141                       4                       8                5.656854    1.67904093165794e-06    1.59457254639698e-06    7.86227340017336e-07
142                       4                       8                2.828427    1.31482619172858e-06    1.24052612077999e-06    1.17395462607096e-06
143                       4                       8                       0    1.44729966561024e-08    1.35834520135295e-08    1.88221284356284e-08
144                       6                      10                5.656854    0.000437185074708307    0.000409523602320819    0.000298492825343547
145                       6                      10                2.828427    5.69715902039244e-06    5.25450658812798e-06    7.20958407555774e-06
146                       6                      10                       0    1.16704935262107e-06    1.05999269468219e-06    2.08609268609832e-06
147                       8                       8                5.656854    3.00251284877456e-05    5.56264689451275e-05    2.89423994880639e-05
148                       8                       8                2.828427    1.48982421854366e-05    2.66207775717147e-05    2.63845239334333e-05
149                       8                       8                       0    1.08443205574526e-07     1.8704122416442e-07    2.69043085244438e-07
150                      10                      10                5.656854     0.00317457910984044     0.00718705187035089     0.00580883810444338
151                      10                      10                2.828427    2.58480995044723e-05    5.63506904778415e-05    8.38861224864635e-05
152                      10                      10                       0    3.62696630896842e-06    7.44942990728571e-06    1.55941997357572e-05
153                      12                       8                5.656854    5.58355073948709e-05    0.000326713089358781    0.000184500059690687
154                      12                       8                2.828427    2.13494837127149e-05    0.000115599199635228    0.000122041309303071
155                      12                       8                       0    1.29513339708603e-07    6.45852322515737e-07     9.7466949205074e-07
156                      14                      10                5.656854    0.000519384345932708      0.0153753296023356      0.0134961604511501
157                      14                      10                2.828427    6.02575422069741e-06    0.000113441015794562    0.000181556101102093
158                      14                      10                       0    1.08282065847078e-06    1.36808939695131e-05    3.02002569491513e-05
159                      16                       8                5.656854   -4.50469412588245e-06    0.000422134877997491    0.000242506448152414
160                      16                       8                2.828427   -2.44316276574593e-06    0.000147513057951647    0.000158306014980636
161                      16                       8                       0   -1.83890421484809e-08    8.14291305134635e-07    1.24694824372006e-06
162                      18                      10                5.656854    -0.00168020259395855      0.0145123045008536       0.012623716617871
163                      18                      10                2.828427   -1.38925614249804e-05    0.000106673071735104     0.00016912722707394
164                      18                      10                       0    -2.0259095854623e-06    1.28134159745086e-05    2.80531997494973e-05
165                      20                       8                5.656854    -6.4607196175881e-05    0.000244452035445445    0.000135994827300806
166                      20                       8                2.828427   -2.49052902464918e-05    9.10834552169305e-05    9.48686918180563e-05
167                      20                       8                       0   -1.51637007432193e-07    5.27612168381241e-07    7.87433126236018e-07
168                      22                      10                5.656854    -0.00243143002950564     0.00433649897104585     0.00337033675832076
169                      22                      10                2.828427   -2.17434619198257e-05     3.6787037878734e-05    5.32232999034651e-05
170                      22                      10                       0   -3.27022911235105e-06    5.22731987864257e-06    1.07283117794778e-05
171                      24                       8                5.656854   -1.72054797281651e-05    2.63156183197809e-05    1.34202758988675e-05
172                      24                       8                2.828427   -9.49277098803479e-06    1.40740255608797e-05    1.37246427698619e-05
173                      24                       8                       0   -7.56092570582342e-08    1.08897155111234e-07     1.5467828549221e-07
174                      26                      10                5.656854   -0.000169722282185802     0.00013296760704394    9.52774104971991e-05
175                      26                      10                2.828427   -2.66983182973515e-06    2.08721784451873e-06    2.82135109576596e-06
176                      26                      10                       0   -6.37312690594047e-07    4.96511278449445e-07    9.65088415744702e-07
177                      28                       8                5.656854   -5.99925656096374e-07    5.00332966436581e-07    2.44165513094227e-07
178                      28                       8                2.828427   -5.34152415935944e-07    4.44379052614658e-07    4.16664042131153e-07
179                      28                       8                       0   -6.36410895543001e-09    5.30451521390126e-09    7.35136859209177e-09
180                      30                      10                5.656854   -1.65130064492755e-06    8.18904998011352e-07    5.53670284800554e-07
181                      30                      10                2.828427   -5.01150874532417e-08    2.53043205979747e-08    3.26954654439373e-08
182                      30                      10                       0   -2.23965733733213e-08    1.09932496269651e-08    2.07667075353035e-08
183                       0                      12                5.656854    1.77080888776853e-07    7.86420808018065e-08     8.3657723079463e-08
184                       0                      12                2.828427    1.74350079956732e-07    8.41203870588184e-08    1.69722452201655e-07
185                       0                      12                       0    2.47411853263433e-09    1.16897464691485e-09    3.49281995006074e-09
186                       2                      14                5.656854    3.78890689793769e-05    5.59430065672055e-06    1.38573668632457e-05
187                       2                      14                2.828427    8.35495208877507e-07    1.31495803109833e-07    5.88703597223778e-07
188                       2                      14                       0    2.64605513277701e-07     4.3962930374398e-08    2.73187420441593e-07
189                       4                      12                5.656854    4.36430365449881e-05     1.7622348516011e-05    2.10388362037899e-05
190                       4                      12                2.828427    2.14248393100407e-05    9.01260524845533e-06     1.9639546125035e-05
191                       4                      12                       0    1.54314355047802e-07    6.71130054223841e-08    2.04689147737524e-07
192                       6                      14                5.656854     0.00526848221090336     0.00119174515339214     0.00368775165775771
193                       6                      14                2.828427    4.38105801681184e-05     1.1132650203769e-05    5.72144261803376e-05
194                       6                      14                       0    6.06592274521775e-06    1.66959106976426e-06    1.11753767021125e-05
195                       8                      12                5.656854     0.00169584917119398     0.00152543749105357     0.00199954509021187
196                       8                      12                2.828427    0.000352726051298402    0.000308043809101761    0.000728201403936397
197                       8                      12                       0    1.32553527279545e-06    1.12419269166204e-06    3.64721855766414e-06
198                      10                      14                5.656854    -0.00901369503301357     -0.0218854360824502      -0.200293327284132
199                      10                      14                2.828427    0.000180154708115893    0.000129856799418927    0.000766189782929252
200                      10                      14                       0    1.70923509498459e-05    1.16960969648485e-05    8.63082556567546e-05
201                      12                      12                5.656854     0.00139391950433818     0.00535429642629742     0.00740740395695215