ITEM: TIMESTEP
0
ITEM: NUMBER OF ATOMS
422
ITEM: BOX BOUNDS ff ff ff
0.0000000000000000e+00 2.3200000000000000e+02
0.0000000000000000e+00 2.3200000000000000e+02
0.0000000000000000e+00 2.3200000000000000e+02
ITEM: ATOMS id xu yu zu fx fy fz
1        113.145932193839        114.683520815677              108.656854     -0.0292766861060665      0.0244909077615929      0.0886053461673076
2        118.827484840071        114.689226241634              108.656854       0.026235421603326      0.0252990925706166      0.0913475068697847
3        117.402344993917        114.687795112765              108.656854     -0.0226416969383685      0.0324917219803697       0.112052049396174
4        114.571072038949        114.684951942936              108.656854      0.0279636103841238      0.0330811020874731       0.115194362588478
5        116.701075167769        113.449724850164              108.656854      -0.021563785821606    -0.00509709719404289      0.0481435901018891
6        115.274826990867        113.448292608712              108.656854      0.0299225851090708    -0.00558865349212567      0.0505462653373279
7        115.272341865028        115.923022205388              108.656854     0.00607936591490987     0.00383641684029343     0.00474598003469481
8        116.698590041422        115.924454446583              108.656854     0.00173180360767683     0.00371708829849479     0.00423871869629051
9        114.517756920757        112.248446241175              108.656854     0.00669699046063248     -0.0203317448381228      0.0159911933349113
10        117.460553482731        112.251401403886              108.656854      -0.025301908643222     -0.0204758334447699      0.0165528281941145
11        114.512863550773        117.121345651893              108.656854      0.0213569266888106     -0.0540151417981079       0.105667110491624
12        117.455660110655        117.124300814179              108.656854     -0.0405632825213207     -0.0530404213755422       0.104489813236125
13        113.127311260236        112.262444587898              108.656854    0.000953551060237423     -0.0187977032783995     0.00564568571962358
14        113.122448808114        117.104554762274              108.656854     -0.0173256480084552     -0.0390924693314796      0.0687505216132605
15        118.850968226168        112.268192293572              108.656854     -0.0167914702086323     -0.0195030256058239     0.00832661641832326
16        118.846105771496         117.11030247058              108.656854     0.00166881922173648      -0.039629105918404      0.0741527853988257
17        112.426795838139         115.89431994364              108.656854     0.00340822564116496     0.00811058588812103     0.00418341720675391
18         112.42922905874        113.471279815063              108.656854     -0.0123680868101982    -0.00334062806751292       0.028777469128943
19        119.546621196692        113.478427112272              108.656854      0.0232624924163864    -0.00354819915841251      0.0290299595187674
20        119.544187975028         115.90146724296              108.656854     0.00653331503917644     0.00795366704153965     0.00292585696275606
21        120.955135022624        113.524435085822              108.656854       0.124172537927551       0.156118647121346      0.0420544826732979
22        120.952791362251        115.858288229576              108.656854       0.151575515766562     -0.0471047240893224      0.0318173914559882
23        111.020625673161        113.514458829493              108.656854    -0.00594231050153293       0.154969486397083      0.0666600795918209
24        111.018282013145        115.848311972274              108.656854     -0.0334215113199939     -0.0445608624315622      0.0536867651040762
25        121.586726460739        114.691997078118              108.656854     -0.0654726579158225     0.00712636579814266      0.0831680738232243
26        110.386690574472        114.680749978664              108.656854    -0.00140106606512624     0.00643673980018247      0.0708588686563009
27        121.609196045824        116.885922140926              108.656854      -0.169988251011521      -0.128371358576261      0.0799658837069301
28          121.6136022867        112.498121569695              108.656854      -0.172560405800623      -0.105179766161307      0.0261807626168778
29        110.359814750727        116.874625487296              108.656854      0.0206022099737568      -0.134386368429834       0.047489368997343
30         110.36422099026         112.48682491673              108.656854      0.0228177018054264      -0.101082094841352    -0.00683342209467878
31        112.599866822243        111.315454800093              108.656854     -0.0166549793900613     0.00123480706460004      0.0125069882434971
32        112.593103500599        118.050483321209              108.656854     -0.0181298013966874      0.0265080277399363     -0.0111932301366424
33        119.380313532952        111.322263734631              108.656854      0.0587525819445439      0.0025307483179591     0.00666744155817883
34        119.373550207142        118.057292260389              108.656854       0.059599265237528      0.0248259550053729     -0.0169654442217399
35        114.962286572867         111.26896056388              108.656854     0.00501104201362307     0.00109678004722596    -0.00099087359098952
36        114.955425108682        118.101722146141              108.656854     0.00833122621777516      0.0180716868260339    -0.00949592355888719
37        117.017991924022        111.271024909739              108.656854       0.021520879673859     0.00126277429565258    -0.00184235509151428
38        117.011130457531        118.103786490585              108.656854      0.0178547282259126      0.0176994570568592      -0.010628631286485
39                     100                     100              105.656854       0.212274100299339       0.214392349816843      -0.975571903261913
40                     100                     100              102.828427       0.431959195674355        0.43011606625177    -0.00053706025070697
41                     100                     100                     100       0.212150180651633       0.213645021508419       0.976473753069209
42                     102                     102              105.656854      -0.344695157625721      -0.348392979306821       -0.27823415391593
43                     102                     102              102.828427     -0.0508261507333021     -0.0477630115104155      0.0010286366368509
44                     102                     102                     100      -0.344460769726071      -0.346790171667386       0.276564454999545
45                     104                     100              105.656854      0.0955477643254144       0.960744552553024      -0.808781270454138
46                     104                     100              102.828427     -0.0635292332620278       0.726232583102195   -0.000484293819208448
47                     104                     100                     100      0.0959443953076539       0.959717547773692       0.809547213883343
48                     106                     102              105.656854      -0.148439544254666      -0.516211430823806      -0.381820109489418
49                     106                     102              102.828427        0.14162694194133      0.0673051233733958    0.000782256788880278
50                     106                     102                     100        -0.1496737180789      -0.514127869475384       0.380632945257259
51                     108                     100              105.656854       0.108548531889821        1.06044458373849       -0.80185916592414
52                     108                     100              102.828427      -0.110770493046081       0.639664003496034    0.000210391881697197
53                     108                     100                     100       0.110069103220644        1.06012795296628       0.801441957162108
54                     110                     102              105.656854       -0.14084052079069      -0.581864785947968      -0.373701336174384
55                     110                     102              102.828427        0.14637698374101       0.134749179991724    -0.00115108836236792
56                     110                     102                     100      -0.144618744697646      -0.582543140849438       0.375675979256892
57                     112                     100              105.656854       0.130428466795654        1.10740701478524       -0.81102379977738
58                     112                     100              102.828427      -0.134580122316772        0.59011752109858     0.00161105306992209
59                     112                     100                     100        0.13229346523948        1.10948462023504        0.80831907138081
60                     114                     102              105.656854      -0.162278344729716      -0.615813873093101      -0.360201050326041
61                     114                     102              102.828427       0.167783514566752        0.17319794800564    -0.00389753131644753
62                     114                     102                     100      -0.164759466041612      -0.621944565355954       0.366605792609147
63                     116                     100              105.656854       0.166591381928259        1.14195919761446      -0.821843187740962
64                     116                     100              102.828427       -0.17077378598864       0.553505748886111     0.00242506470732103
65                     116                     100                     100       0.166588607179262        1.14561828471026       0.817825033935214
66                     118                     102              105.656854      -0.211028446998389      -0.648023383169546      -0.346771410747792
67                     118                     102              102.828427       0.215311775923613       0.206449865257441    -0.00389240047077072
68                     118                     102                     100      -0.208537822125172      -0.654139827323575       0.353167756183091
69                     120                     100              105.656854       0.224450318190752        1.18149565263653      -0.835590589612744
70                     120                     100              102.828427      -0.229508083945459       0.513606514930601     0.00160893252637104
71                     120                     100                     100       0.222587069508517        1.18356702308487       0.832889296857512
72                     122                     102              105.656854      -0.291003165555349      -0.688041759864604      -0.330173302436371
73                     122                     102              102.828427       0.295052251167203       0.244318597990999    -0.00114879459037999
74                     122                     102                     100      -0.287239500372867      -0.688713204322123       0.332144087469207
75                     124                     100              105.656854       0.327324513355081        1.23708660197455      -0.852057900238247
76                     124                     100              102.828427       -0.32374069184523        0.45927961932261    0.000212209766008148
77                     124                     100                     100       0.325810309386052        1.23677261925506       0.851637895291145
78                     126                     102              105.656854      -0.462316101292535      -0.729001592416776       -0.33238547590237
79                     126                     102              102.828427       0.397782468486471       0.282478065270662    0.000774576955319768
80                     126                     102                     100      -0.461089317301347      -0.726932735296236       0.331210359323621
81                     128                     100              105.656854       0.708481294002202        1.34138661329189      -0.754582716154984
82                     128                     100              102.828427      -0.281139989415394        0.39561628833603   -0.000479398539292373
83                     128                     100                     100        0.70808600406727        1.34036731912839       0.755340831600798
84                     130                     102              105.656854       -1.34039219927271      -0.709559552980864      -0.755672827713747
85                     130                     102              102.828427      -0.395935112030465       0.281576443640068     0.00102006806808006
86                     130                     102                     100       -1.34062357455941      -0.707969144442486       0.754016792929873
87                     100                     104              105.656854       0.959676457108998       0.100666057865604      -0.808136079518564
88                     100                     104              102.828427       0.727320387017878     -0.0676508213375464    -0.00143188243481517
89                     100                     104                     100       0.958692494306442       0.098961778297685       0.810488255920662
90                     102                     106              105.656854      -0.515142984024077      -0.158316907940669       -0.38357228729767
91                     102                     106              102.828427      0.0658796975182447       0.148864021822033     0.00304773668375992
92                     102                     106                     100      -0.512662102566645      -0.154424113652267       0.378690579293033
93                     104                     104              105.656854       0.247585545292572        0.25467009707427      -0.387796284431064
94                     104                     104              102.828427      -0.180005674711227      -0.185412173476817    -0.00210907530563603
95                     104                     104                     100       0.247182185814079       0.250915278789076       0.391136066281936
96                     106                     106              105.656854      -0.233864022468637      -0.249338571002751      -0.507043923931439
97                     106                     106              102.828427       0.224977721918852       0.235132752983031     0.00454642730019281
98                     106                     106                     100      -0.233639307707044      -0.239689748199724       0.499555752406392
99                     108                     104              105.656854       0.170843255453436       0.341140968951911      -0.374375600674462
100                     108                     104              102.828427      -0.175551234818831      -0.269862473002373   -0.000990849130783671
101                     108                     104                     100       0.175101849877234       0.337091425206447       0.375895393608321
102                     110                     106              105.656854      -0.173358488695188      -0.296631924009158      -0.491216942829403
103                     110                     106              102.828427       0.187986980525171       0.286630446305759   -0.000524475012033912
104                     110                     106                     100      -0.189006161161165      -0.291972667682853       0.491951238849693
105                     112                     104              105.656854       0.161840186954222       0.376926157648644      -0.392336735527765
106                     112                     104              102.828427      -0.171286206946442       -0.31333970271524     0.00438666199289251
107                     112                     104                     100        0.17036975440647       0.382956067148933       0.384986178500332
108                     114                     106              105.656854      -0.181098195323115      -0.296567103512107      -0.459022361413831
109                     114                     106              102.828427       0.194320206525028       0.308738382271964     -0.0131329998039623
110                     114                     106                     100      -0.193852693418071      -0.321457426846117       0.483667210157145
111                     116                     104              105.656854       0.198215917512159       0.398426280897142      -0.409768429973374
112                     116                     104              102.828427      -0.203412160802083      -0.341191363346604      0.0082154152300352
113                     116                     104                     100       0.198193696160328       0.412843594019681       0.396066414376849
114                     118                     106              105.656854      -0.248197379911669      -0.318881227132201      -0.443172347065452
115                     118                     106              102.828427       0.246535890771361       0.331672448303908     -0.0130962319083092
116                     118                     106                     100      -0.235364037534381      -0.343660860360896       0.467739211714888
117                     120                     104              105.656854       0.265566685772821        0.43363366001853      -0.423045253750936
118                     120                     104              102.828427      -0.267705977945257       -0.37186500908161     0.00436969419956549
119                     120                     104                     100       0.257050144465563       0.439616500070284       0.415723973905999
120                     122                     106              105.656854      -0.326790690605067      -0.366651779989391      -0.439452771236631
121                     122                     106              102.828427       0.323925429758745       0.358908727243097   -0.000508671964295834
122                     122                     106                     100       -0.31126045471944      -0.361953702003166       0.440160654106962
123                     124                     104              105.656854       0.370368573709383       0.466430220442225      -0.437707047718303
124                     124                     104              102.828427      -0.364102876421364      -0.399070317499484   -0.000983006497908798
125                     124                     104                     100       0.366142557815608       0.462401445253558       0.439213047234697
126                     126                     106              105.656854      -0.465364773756042      -0.373582169174391      -0.443923540091765
127                     126                     106              102.828427       0.401350093223854       0.363357824642319     0.00451134416516985
128                     126                     106                     100      -0.465596994291357      -0.364012489887093       0.436499740915602
129                     128                     104              105.656854       0.727586888092297       0.464145954502876      -0.329951316575563
130                     128                     104              102.828427      -0.282590101856725       -0.39808931990121    -0.00209159927686579
131                     128                     104                     100       0.727986417114004       0.460421500593964       0.333263357487319
132                     130                     106              105.656854        -1.2352630538021      -0.329558621787717      -0.854396941944209
133                     130                     106              102.828427       -0.45942114185388       0.324595191740977     0.00302278158688698
134                     130                     106                     100       -1.23772137952985      -0.325698452350397        0.84955483334533
135                     100                     108              105.656854        1.06439789223732       0.116959139808221      -0.799394158483868
136                     100                     108              102.828427       0.637425610135948      -0.117073953878849    -0.00313998726598357
137                     100                     108                     100        1.06097730144715       0.114288228120749       0.804472606078243
138                     102                     110              105.656854      -0.592808552283469      -0.155483845055989      -0.380499915550941
139                     102                     110              102.828427       0.139969687437058       0.156135599035315     0.00669229179522615
140                     102                     110                     100       -0.58417484547052         -0.150372906356       0.369715182565649
141                     104                     108              105.656854       0.341781968162599       0.191938429898666      -0.368537781571536
142                     104                     108              102.828427      -0.268167880057153      -0.188645585397902    -0.00696231358699201
143                     104                     108                     100       0.334891504970806       0.182434692166362       0.379988296074463
144                     106                     110              105.656854      -0.307525835375948      -0.221458803650493      -0.516192712415321
145                     106                     110              102.828427       0.284430073759262       0.210546760592934      0.0159651446951862
146                     106                     110                     100      -0.288289236728235      -0.199309638994691       0.483733442166354
147                     108                     108              105.656854       0.222052590481964       0.262914276267602       -0.34867097114846
148                     108                     108              102.828427      -0.226974564559499      -0.246640367166522    -0.00913158865421781
149                     108                     108                     100          0.226794238997       0.236265471208464       0.369347739569261
150                     110                     110              105.656854      -0.153875558577855      -0.274207856385753      -0.523687665607593
151                     110                     110              102.828427       0.209805102743763        0.24382395984342      0.0099643692065347
152                     110                     110                     100      -0.219635751877858      -0.232645932997678       0.474675216385796
153                     112                     108              105.656854       0.153580984538462       0.255001245295528       -0.40003386365585
154                     112                     108              102.828427      -0.191250902988359      -0.269002502328361      0.0110118902316244
155                     112                     108                     100        0.19899490040179       0.267286504537551       0.376803513740774
156                     114                     110              105.656854      -0.161244165680141       -0.18979368905758      -0.347022686734064
157                     114                     110              102.828427       0.204145756368469       0.247460139289044     -0.0349382721591417
158                     114                     110                     100      -0.211886356259252      -0.249741148981778       0.472626758870509
159                     116                     108              105.656854       0.220342447473312       0.234444323117395       -0.44838486629239
160                     116                     108              102.828427      -0.226142738459503       -0.27908885016243      0.0284510859087731
161                     116                     108                     100       0.220198084284415       0.285677863056929       0.385753160836646
162                     118                     110              105.656854      -0.302012059538301      -0.200912563407384      -0.329945268456363
163                     118                     110              102.828427       0.271346507507185       0.258829351729919     -0.0347826330850711
164                     118                     110                     100      -0.250831986244205      -0.260717550357265       0.455229543954647
165                     120                     108              105.656854       0.321377069943489       0.288944423269418      -0.434577789605253
166                     120                     108              102.828427      -0.296942512144652      -0.303737860271033      0.0108984207964639
167                     120                     108                     100       0.276062482835254        0.30089174840045         0.4116463555664
168                     122                     110              105.656854       -0.38174969451381      -0.308008162440184      -0.467230510236125
169                     122                     110              102.828427       0.339710212706557       0.278464407860885      0.0100627157566755
170                     122                     110                     100      -0.317107853553281      -0.266153119882262       0.418214322578369
171                     124                     108              105.656854       0.374721573530253        0.33235566481371      -0.421191144977183
172                     124                     108              102.828427       -0.36993313582566      -0.318536726482132    -0.00908733714058365
173                     124                     108                     100       0.370113017621122       0.305903042938996       0.441677578879757
174                     126                     110              105.656854      -0.428023453333049      -0.277204725452053      -0.444553118039509
175                     126                     110              102.828427       0.379188337879642       0.268262791808846       0.015849697061018
176                     126                     110                     100      -0.447129451271579      -0.255225687122973       0.412438931460617
177                     128                     108              105.656854       0.684781374291892        0.29598855847343      -0.323876953088211
178                     128                     108              102.828427      -0.245609204139364      -0.296150519172541    -0.00690471303421631
179                     128                     108                     100       0.691609862172294       0.286569547493004       0.335224017310302
180                     130                     110              105.656854        -1.1767146683345      -0.227821976974525      -0.840451877508733
181                     130                     110              102.828427      -0.514068244142133       0.230882520910096      0.0066380383285893
182                     130                     110                     100       -1.18526995875737      -0.222749947909598       0.829757069922748
183                     100                     112              105.656854        1.11976772968247       0.137199321110201      -0.805909697410336
184                     100                     112              102.828427       0.582624772842901      -0.139471901366939    -0.00499618753162193
185                     100                     112                     100        1.11309619701123        0.13541717634522       0.813943750957171
186                     102                     114              105.656854      -0.640391341198244      -0.167980467280312      -0.372078559993732
187                     102                     114              102.828427        0.18572336259239       0.171590239619986     0.00926270893079795
188                     102                     114                     100      -0.626844202718339      -0.166988285401599       0.357073152539537
189                     104                     112              105.656854       0.406411436480304       0.184450197698692      -0.371531278009854
190                     104                     112              102.828427      -0.323697778513531      -0.184224099781839     -0.0140304616298538
191                     104                     112                     100       0.385195537962784       0.176974809280685       0.396107841189118
192                     106                     114              105.656854      -0.356139745962156      -0.200954191343974      -0.518935730319769
193                     106                     114              102.828427       0.322288030155451       0.204918322666945      0.0249359494371277
194                     106                     114                     100      -0.322503985044502      -0.198720467470342       0.465873118910496
195                     108                     112              105.656854       0.296587960409656       0.235273689869268      -0.274576702294048
196                     108                     112              102.828427      -0.260729656953081      -0.220353271040074     -0.0266234872053802
197                     108                     112                     100       0.260483492245485       0.210492245867677       0.390547340167986
198                     110                     114              105.656854      -0.137645604379045      -0.180663478644842      -0.695722994144149
199                     110                     114              102.828427       0.220908778308871       0.225382257835038      0.0148017677953794
200                     110                     114                     100      -0.238684193955118      -0.220111184961251       0.456413047080117
201                     112                     112              105.656854      0.0692973069239282       0.207812281660118      -0.436089037383226