ITEM: TIMESTEP
0
ITEM: NUMBER OF ATOMS
422
ITEM: BOX BOUNDS pp pp pp
0.0000000000000000e+00 3.2000000000000000e+01
0.0000000000000000e+00 3.2000000000000000e+01
0.0000000000000000e+00 3.2000000000000000e+01
ITEM: ATOMS id xu yu zu fx fy fz
1        13.1709578005404        16.0085464223791        8.68187560670182       -1.20989218554349       -1.72653385319795      -0.205974892476944
2        18.8475449811697         16.009286382733        8.67691014109859       0.332758787048104       0.141422879796673       0.261614974851226
3        17.4212213102146        16.0066714290626        8.67572631629763       -2.98378470348242       -3.46663831646919      -0.743059770044776
4        14.5845220404019        15.9984019443887        8.67030000145283       0.117281246770487      -0.374744293536798     -0.0282689057358415
5        16.6515467732563        14.7001964556508        8.60732160548711        5.21670948542764        5.43537195395214        1.27615833865407
6        15.2583615750103        14.7318271928548         8.6403845841429      -0.203281140105307       0.623887538253067       0.028381371388023
7         15.291546691871        17.2422270322312        8.67605482684347          -0.84902931671       -1.35002563277905      -0.264962170323108
8        16.7079890556344        17.2338534607954        8.66624901421284       0.608462277252482       0.453139682228558       0.276094302495837
9         14.517126101016        13.5478154214337         8.6562191802586       -2.62150755087103       -1.62495680084336      -0.276697419752834
10        17.4763949617612        13.5672428829159        8.67269147902982       -1.54267237383281       -2.79694586067848      -0.413308659033337
11        14.5127500942024        18.4212321953225        8.65673654342952        1.42467440451739         2.2154987090558       0.544585340203931
12        17.4623587036123        18.4309994071359        8.66354859295705        -1.4251658657193       -1.46800549537027      -0.185504113348746
13         13.080043654003        13.5151769816648        8.60958239376722        4.59254313753486        4.70479272184983       0.924900989231801
14        13.1208636994173         18.402969653578        8.65526489130367      -0.463407145639636      0.0987043812912897      0.0318613227802396
15        18.8860087897188        13.6032328571229        8.69189056355078      -0.703430926784369      -0.419398611342727     -0.0369332726120638
16        18.8243903132022        18.3885870122864        8.63513454170593        3.44146969374644        3.91622959750722       0.735595904491419
17        12.4204778660231         17.188001971524        8.65053202788408      -0.662604209645686      -0.101382839179734      -0.392300654265754
18        12.4424400504854        14.7844908068092        8.67006099174579        -1.9154166633475       -2.64795107712743      -0.838593982472155
19        19.5891081509349        14.8209140665148         8.6993369542427      -0.949777132012411      -0.510379105765646     0.00925431508164181
20        19.5565054550495        17.2137847229808        8.66916748002122       -1.62559566820869        -1.6257523317038      -0.444193565261403
21        21.0020688884978        14.8713689516961        8.70378386587375       -1.58675589280784       -3.27968713138811      -0.425077137804287
22        20.9435943561611        17.1490912234861        8.64765299391034        4.79889513909576        5.80249604294313        1.12123808353986
23        11.0085184848738        14.8023516412053        8.64474281171275        5.42309391091322        6.51221591421651        1.12931976314208
24        10.9719981516437        17.1020281107719        8.61056613849827        7.69950826601787        7.83364212656019        1.05158595268598
25        21.6286043759716        16.0338749933498        8.69872791523209      -0.737313411765995       -1.80699410656988      -0.420236848266355
26        10.4355456936383        16.0296050978312        8.70570511916674       -6.76284779559245       -7.83442354022451      -0.702981293459206
27        21.6345073485189        18.2112334436212        8.68216130269483       -2.57003997849535       -2.38779018769935      -0.321878422720477
28        21.5959070388447        13.7804263218393        8.63915475214454       0.983421627176321        2.43980486598173       0.440467495030007
29        10.3472958836769        18.1621066202458        8.64433113294946       -1.00032324133084       -1.55812747189099      -0.164235334036931
30        10.3893275081461        13.8119314346153        8.68195651788558       -2.82096264714902       -2.50798638762806      0.0600472010014693
31        12.6064980401881        12.6220860180388        8.66348121794548       -1.33973513135122       -1.82320545883352      -0.133834267471974
32        12.5974837031345        19.3548635237445        8.66123020253522     -0.0480267013250625      -0.137718499927432     -0.0434166305235047
33        19.3821968722836         12.624147073963        8.65873333933171       0.174689015238104       0.594376852858729       0.134131736572195
34        19.4063525901588        19.3900946434054        8.68965238301644       -1.39155053938536        -1.9066405194144      -0.350118146116673
35        14.9642889170547        12.5709629080674        8.65885234418782      0.0264261479862531    -0.00128758804443036      0.0223465971649192
36        14.9995165573636        19.4458135948225        8.70094144868165       -1.51598430999787       -1.49837940965736      -0.149908547490282
37         16.995740960638        12.5487739463558         8.6345990366165        1.27252719184158        1.20500805964373       0.139064598570755
38        16.9687735926732        19.3614296257267        8.61449313514216       0.815790929796956       0.869152670018483      0.0834030313751666
39                       0                       0                5.656854                       0                       0                       0
40                       0                       0                2.828427                       0                       0                       0
41                       0                       0                       0                       0                       0                       0
42                       2                       2                5.656854    5.23352492763106e-10    7.36865232004622e-10    1.88715357942824e-10
43                       2                       2                2.828427                       0                       0                       0
44                       2                       2                       0                       0                       0                       0
45                       4                       0                5.656854                       0                       0                       0
46                       4                       0                2.828427                       0                       0                       0
47                       4                       0                       0                       0                       0                       0
48                       6                       2                5.656854    1.76143815552587e-08    3.50683122735709e-08    9.08193528763773e-09
49                       6                       2                2.828427    6.22755504211723e-10    1.29499781824399e-09    6.51458402739987e-10
50                       6                       2                       0                       0                       0                       0
51                       8                       0                5.656854    6.76624906434472e-10    5.46734481658116e-11    4.71868166161983e-10
52                       8                       0                2.828427    3.88668533287856e-10    1.25310977746029e-11     4.9270891836545e-10
53                       8                       0                       0                       0                       0                       0
54                      10                       2                5.656854     7.8721348820307e-08    3.02052748670316e-07    7.97442656945067e-08
55                      10                       2                2.828427    2.86308593658686e-09    1.10240460648107e-08    5.65073775951592e-09
56                      10                       2                       0    9.99493123539693e-10    4.24196314718149e-09    3.29048179918873e-09
57                      12                       0                5.656854    1.37493936468441e-09    2.62165782412775e-10     2.2246538912333e-09
58                      12                       0                2.828427    1.72236985485989e-09    3.68492818437731e-10    5.26056024202616e-09
59                      12                       0                       0                       0                       0                       0
60                      14                       2                5.656854    4.72663533349225e-08    7.46745406931087e-07    2.00058718517632e-07
61                      14                       2                2.828427    1.61426321973851e-09    2.59656506180011e-08    1.34915489200253e-08
62                      14                       2                       0    7.82534340425767e-10    1.11163462135285e-08    8.70450326218564e-09
63                      16                       0                5.656854   -3.39675219835907e-11    2.68557061311994e-10    3.31629894439879e-09
64                      16                       0                2.828427   -2.43614547689585e-10     1.3588398206164e-09     7.7372436021085e-09
65                      16                       0                       0                       0                       0                       0
66                      18                       2                5.656854   -5.09857221906445e-08    7.30130508434995e-07    1.96280732854149e-07
67                      18                       2                2.828427   -1.76405641956446e-09    2.53351099271706e-08     1.3186693744349e-08
68                      18                       2                       0   -8.27117851811902e-10    1.07180363724332e-08    8.40933438694289e-09
69                      20                       0                5.656854   -1.35370925506236e-09    1.08642168514272e-10    2.19011127794251e-09
70                      20                       0                2.828427   -1.70151325027955e-09    9.80677710285776e-11    5.12691536214917e-09
71                      20                       0                       0                       0                       0                       0
72                      22                       2                5.656854   -7.55474376738361e-08     2.9053123085304e-07    7.69897298806891e-08
73                      22                       2                2.828427    -2.7355131202752e-09    1.05611119702371e-08    5.42537081824384e-09
74                      22                       2                       0   -9.48491486692152e-10    4.08059288008518e-09     3.1686879832691e-09
75                      24                       0                5.656854   -6.65488559889465e-10    1.42296755969369e-11    4.69975747969255e-10
76                      24                       0                2.828427   -3.94098842138465e-10    -5.7591683097347e-12    5.00221137881109e-10
77                      24                       0                       0                       0                       0                       0
78                      26                       2                5.656854   -1.70742957570591e-08    3.42780867374841e-08    8.88339616544611e-09
79                      26                       2                2.828427   -5.31784857195641e-10    1.08604721673122e-09    5.54934881036889e-10
80                      26                       2                       0                       0                       0                       0
81                      28                       0                5.656854                       0                       0                       0
82                      28                       0                2.828427                       0                       0                       0
83                      28                       0                       0                       0                       0                       0
84                      30                       2                5.656854    -5.4560561464824e-10    7.64801957076618e-10    1.93615187559282e-10
85                      30                       2                2.828427                       0                       0                       0
86                      30                       2                       0                       0                       0                       0
87                       0                       4                5.656854   -5.02050716360458e-12    2.96576491193191e-10    9.09285552955356e-11
88                       0                       4                2.828427                       0                       0                       0
89                       0                       4                       0                       0                       0                       0
90                       2                       6                5.656854    9.68990395948657e-08    8.86653213278921e-08    3.30704386563988e-08
91                       2                       6                2.828427    3.61763500499392e-09    3.26522034515382e-09    2.36346255721803e-09
92                       2                       6                       0    1.01214332133714e-09    9.42482483919241e-10    1.04744799832701e-09
93                       4                       4                5.656854    1.09934866072641e-08    1.49102155482576e-08    4.55406461727654e-09
94                       4                       4                2.828427    1.33067215771967e-08     1.8247860855074e-08    1.07628767653734e-08
95                       4                       4                       0    1.40471064393826e-10    1.94063839320648e-10    1.76589492787443e-10
96                       6                       6                5.656854    3.26390085946469e-06    4.78840845221354e-06    1.82908596917258e-06
97                       6                       6                2.828427    9.06457954926789e-08      1.309731479545e-07      9.638965557011e-08
98                       6                       6                       0    3.52589070372802e-08    5.04389269784025e-08    5.49987478155354e-08
99                       8                       4                5.656854    1.30281113151239e-07    3.02537037858622e-07    9.47367653887305e-08
100                       8                       4                2.828427    1.33399126073894e-07    3.06517093664541e-07    1.85417086621221e-07
101                       8                       4                       0    1.79212003396207e-09    4.12151058787462e-09    3.71444520685654e-09
102                      10                       6                5.656854    2.20975528096115e-05    6.49903770621613e-05    2.60953501122667e-05
103                      10                       6                2.828427    4.60796340434964e-07    1.33189633439319e-06    1.02340117536419e-06
104                      10                       6                       0    1.39774905018422e-07    3.95647394142148e-07    4.44487799937383e-07
105                      12                       4                5.656854    2.63946090913102e-07    1.58482178520478e-06    5.11422932585376e-07
106                      12                       4                2.828427    2.37974586066212e-07    1.38862460470712e-06    8.63342700367128e-07
107                      12                       4                       0    2.96985931100487e-09    1.68584753560061e-08    1.54659279154866e-08
108                      14                       6                5.656854    1.17578053558426e-05    0.000185195797387218    7.68211996946458e-05
109                      14                       6                2.828427    2.40566448944289e-07    3.35661190898667e-06    2.65789542064891e-06
110                      14                       6                       0    7.21107010075516e-08    8.92664935379896e-07    1.02889797727728e-06
111                      16                       4                5.656854   -1.08223060212538e-08    2.34914625822929e-06    7.67256527381066e-07
112                      16                       4                2.828427     -1.108652930767e-08     2.0109834526091e-06    1.26405405299223e-06
113                      16                       4                       0   -1.51517510083027e-10    2.38592475143431e-08    2.20956464739194e-08
114                      18                       6                5.656854   -1.30694794952271e-05    0.000179764077471542    7.48507523629139e-05
115                      18                       6                2.828427   -2.69220837560659e-07    3.25163758258283e-06    2.57994325851942e-06
116                      18                       6                       0    -8.0901983633107e-08    8.66093767071813e-07    9.99204449330465e-07
117                      20                       4                5.656854   -2.58160466276886e-07    1.52177504067821e-06    4.93276305897245e-07
118                      20                       4                2.828427   -2.32858047271491e-07    1.32965420826427e-06    8.28708742574362e-07
119                      20                       4                       0   -2.91368001737632e-09    1.61305656594849e-08    1.48220363993124e-08
120                      22                       6                5.656854   -2.09417319220727e-05     6.2425070973679e-05    2.51490260204258e-05
121                      22                       6                2.828427    -4.3528875258216e-07     1.2732965482176e-06    9.80085967133189e-07
122                      22                       6                       0   -1.32232604882145e-07    3.77343682490081e-07    4.24326584951646e-07
123                      24                       4                5.656854   -1.25099598563221e-07    2.93880948684453e-07    9.21792170711036e-08
124                      24                       4                2.828427   -1.26776399434705e-07    2.95627576913033e-07    1.79079645521893e-07
125                      24                       4                       0   -1.70164651549639e-09    3.96216297506177e-09    3.57503499880773e-09
126                      26                       6                5.656854   -3.20249417719513e-06    4.73704632731032e-06    1.80829434570796e-06
127                      26                       6                2.828427   -8.81968263114467e-08    1.28756430596356e-07    9.48400434398693e-08
128                      26                       6                       0   -3.40728321970271e-08     4.9253836477423e-08    5.37606324553153e-08
129                      28                       4                5.656854   -1.08394605328164e-08     1.4784006180522e-08    4.50802700629168e-09
130                      28                       4                2.828427   -1.30832844816119e-08    1.80667655329451e-08    1.06540977850096e-08
131                      28                       4                       0   -1.46956398839423e-10    2.03216632578528e-10    1.84371260479024e-10
132                      30                       6                5.656854   -9.63663020430414e-08    8.82988549991232e-08    3.28714513780303e-08
133                      30                       6                2.828427   -3.60101048499526e-09    3.26079327025273e-09    2.35910018810603e-09
134                      30                       6                       0   -1.06997130750823e-09    9.90568876739961e-10    1.09989831724176e-09
135                       0                       8                5.656854    4.83150073033012e-11    1.25962902019235e-08    5.99960620868205e-09
136                       0                       8                2.828427   -9.66713451846585e-11    1.41855997058825e-08    1.32964099970375e-08
137                       0                       8                       0   -5.70790339158716e-12    1.44647895372083e-10    2.16131653349458e-10
138                       2                      10                5.656854    3.15466362750614e-06    1.60370509983302e-06    1.09257983595314e-06
139                       2                      10                2.828427    8.95581860991473e-08    4.60596076749794e-08    5.96918667559846e-08
140                       2                      10                       0    3.63871774498317e-08    1.87963054619153e-08    3.55572002009891e-08
141                       4                       8                5.656854    1.00225096429881e-06     8.8795485475493e-07    4.36250784896643e-07
142                       4                       8                2.828427    8.39551114958329e-07    7.40031738122489e-07     6.9687214520741e-07
143                       4                       8                       0    9.86010221940018e-09    8.64299266573744e-09    1.19538015538712e-08
144                       6                      10                5.656854    0.000273914483696079    0.000233122985731107    0.000168476712835894
145                       6                      10                2.828427    3.94445640238932e-06    3.32597622039173e-06     4.5215939845713e-06
146                       6                      10                       0    8.77955089204506e-07    7.33274556762081e-07    1.43161514060477e-06
147                       8                       8                5.656854    2.33752762958942e-05    3.87578425083097e-05    1.99872140232372e-05
148                       8                       8                2.828427    1.22745316247694e-05    1.96683173675297e-05    1.93488174807082e-05
149                       8                       8                       0    9.32822860615486e-08    1.45114535151916e-07    2.07701852392303e-07
150                      10                      10                5.656854     0.00293767527999134     0.00574885248832591     0.00456381746845298
151                      10                      10                2.828427    2.49467375746729e-05     4.6736402250669e-05    6.87505464893538e-05
152                      10                      10                       0    3.59397163312456e-06    6.38614702960502e-06    1.32791252886844e-05
153                      12                       8                5.656854    6.38265970142898e-05    0.000294721463136625    0.000165009821654833
154                      12                       8                2.828427    2.42666440382645e-05    0.000106429925022959    0.000111708762355346
155                      12                       8                       0    1.45670716935919e-07    6.01091515622798e-07    9.04000903700427e-07
156                      14                      10                5.656854     0.00095994697819649      0.0152873466617155      0.0133695441202455
157                      14                      10                2.828427    9.00551826970899e-06    0.000112856693127492     0.00018023039164051
158                      14                      10                       0    1.45762746634531e-06    1.34771781785614e-05    2.97419809522373e-05
159                      16                       8                5.656854   -2.94669199594387e-06    0.000425029096225413    0.000244415565548045
160                      16                       8                2.828427   -1.41163095257378e-06    0.000148402556470192     0.00015945743933582
161                      16                       8                       0   -8.71915154332176e-09    8.18135478721244e-07    1.25456633200817e-06
162                      18                      10                5.656854    -0.00114639423043076      0.0148121037576047      0.0129958487792208
163                      18                      10                2.828427   -1.09430581979058e-05      0.0001083430448532    0.000173043511984701
164                      18                      10                       0   -1.69883840788611e-06    1.30536641023658e-05    2.87445202249691e-05
165                      20                       8                5.656854   -6.08723363694584e-05    0.000279291691529156    0.000157255151083618
166                      20                       8                2.828427   -2.32585495084382e-05    0.000100755953664291    0.000105971356021243
167                      20                       8                       0    -1.4140202233602e-07    5.71953889840573e-07    8.60167233569875e-07
168                      22                      10                5.656854    -0.00275355007006196     0.00554853381532151     0.00441566343731599
169                      22                      10                2.828427   -2.32775271414935e-05    4.47866005615975e-05    6.59176189943825e-05
170                      22                      10                       0   -3.38341707344113e-06    6.10777998963547e-06    1.26802132914184e-05
171                      24                       8                5.656854   -2.26822672776148e-05    3.82075442353959e-05    1.97112322646102e-05
172                      24                       8                2.828427   -1.17782397442282e-05    1.91836177538873e-05    1.88968050424026e-05
173                      24                       8                       0   -8.90276932572547e-08    1.40317112279787e-07    2.01010200897304e-07
174                      26                      10                5.656854   -0.000272607949443883    0.000232292885902752    0.000168126361438217
175                      26                      10                2.828427   -3.88059652343974e-06    3.28527751343216e-06    4.48410981746927e-06
176                      26                      10                       0     -8.528609532711e-07    7.16459039101502e-07    1.40342023554464e-06
177                      28                       8                5.656854   -9.97222498479237e-07    8.84717487458253e-07    4.34300643187271e-07
178                      28                       8                2.828427   -8.31319412257157e-07    7.34765543025323e-07    6.93181318686182e-07
179                      28                       8                       0   -9.68230407579355e-09    8.52139780057943e-09    1.18123688432777e-08
180                      30                      10                5.656854   -3.13998902816476e-06    1.59459631028035e-06    1.08664622604286e-06
181                      30                      10                2.828427   -8.90545982834179e-08    4.56310587310602e-08    5.93561896862327e-08
182                      30                      10                       0   -3.59174062694073e-08    1.85342474413615e-08    3.52231530651817e-08
183                       0                      12                5.656854    7.14983262609246e-10    6.09442001606442e-08     6.3905857759822e-08
184                       0                      12                2.828427    1.12023516340182e-09    6.82081293414058e-08    1.35534928243668e-07
185                       0                      12                       0    1.97526564186758e-11    1.01663459610133e-09    2.87504525680131e-09
186                       2                      14                5.656854    1.87016696348165e-05    2.76010976032949e-06    6.47770653758792e-06
187                       2                      14                2.828427    4.54349291312857e-07    7.11640220597882e-08    3.03868796142952e-07
188                       2                      14                       0    1.58748249447651e-07    2.60207198712268e-08    1.54949769683667e-07
189                       4                      12                5.656854    2.28924666059793e-05    8.75421205957285e-06    1.02131694401399e-05
190                       4                      12                2.828427    1.27254516343587e-05    5.05954176796539e-06    1.08071666035161e-05
191                       4                      12                       0     1.0183125432783e-07    4.18164825255985e-08    1.25665421698852e-07
192                       6                      14                5.656854     0.00310088611333692    0.000657377008808418     0.00194809358586647
193                       6                      14                2.828427    2.92308984382416e-05    7.01594565251558e-06    3.44252423029201e-05
194                       6                      14                       0    4.51025672555311e-06    1.16794280580117e-06    7.56495665788792e-06
195                       8                      12                5.656854     0.00130567747445681     0.00101793141352924      0.0013248743032088
196                       8                      12                2.828427    0.000285979545413772    0.000220176634468323    0.000512632870902752
197                       8                      12                       0    1.14012280250996e-06    8.65517012421139e-07    2.77526125965204e-06
198                      10                      14                5.656854      -0.020412906148786    -0.00907534802816351      -0.132609701706898
199                      10                      14                2.828427      0.0001836847326993    0.000110897032822689    0.000636787769257632
200                      10                      14                       0     1.7309524969292e-05    1.01887652054852e-05    7.39328835759025e-05
201                      12                      12                5.656854     0.00168265152560037      0.0053129711306604     0.00742578879077699