ITEM: TIMESTEP
0
ITEM: NUMBER OF ATOMS
422
ITEM: BOX BOUNDS ff ff ff
0.0000000000000000e+00 2.3200000000000000e+02
0.0000000000000000e+00 2.3200000000000000e+02
0.0000000000000000e+00 2.3200000000000000e+02
ITEM: ATOMS id xu yu zu fx fy fz
1        113.096921318776        115.934509940615        108.607843124938        5.00344032127252        7.32738804586788      -0.241437776947914
2        118.871616471766        116.033357873329        108.700985631694       -9.32091335358777       -6.36552640395429       0.642259449696865
3        117.437145999318        116.022596118166        108.691655005401       -4.48640282364152       -4.32653098531195       0.229027095371098
4        114.533716048992        115.947595952978        108.619498010042        3.53795207839691        4.12261785960841      -0.510802374596818
5        116.686157094618        114.734806777013        108.641935926849      -0.132939742391376        1.93738548035639     -0.0924812389878406
6        115.224959055516         114.69842467336        108.606986064649        9.57938444058721        4.02430171854273      -0.488749287398736
7        115.259027137546        117.209707477906        108.643539272518        2.52669814334924       0.744634693194738       0.147837953769643
8        116.724640389074        117.250504794235        108.682904347652       -5.22321688115916        -1.3587404806712       0.160011063435128
9        114.507685554853         113.53837487527        108.646782634095        5.22679942830996       -9.67433018375124      0.0703378692272442
10        117.470404143032        113.561252064187        108.666704660301       -5.49139055957112       -6.83148711283885       0.101324882702427
11        114.542742348212        118.451224449332        108.686732797439        1.28315497946393        2.97779442497949      0.0168264421298461
12         117.47899435853        118.447635062053        108.680188247874       -6.12058370637924          6.467188135219       0.125079384769014
13        113.151202924409        113.586336252071        108.680745664173        -9.5171671147157       -13.3747160361852       0.658306081837219
14        113.076476284961        118.358582239122        108.610881476847        1.76831741566235        12.9698161132777      -0.174539439036424
15        118.878054183668        113.595278251072          108.6839399575       0.884030617041143       -10.1380903575399       0.138277646065742
16        118.860460039273        118.424656738357        108.671208267776         4.0574146665393        9.91139827225316       0.121562346612204
17        112.473005441056        117.240529546557        108.703063602917       -10.2969536115987       -6.97441304473517       0.370887425442757
18        112.413914980658        114.755965736982        108.641539921919       -4.38448842839799       -1.56824292937829      -0.137365321404184
19        119.538729742678        114.770535658258        108.648962545986        3.67157383584423       0.941802150941573      -0.106916044636352
20        119.557482624013        117.214761891944        108.670148648984       0.813529146633427        2.46881780790931       0.122906774603628
21        120.957827919551        114.827127982749        108.659546896927        8.25601202465282       -13.9827896766443      0.0952522656892353
22        120.912701668336        117.118198535661        108.616764306085        16.7086723736222        16.4785152564146      -0.670280369529598
23        110.997330489853        114.791163646184        108.633558816691       -9.27581574423007         -9.111920000102       0.243665500408008
24        110.970552587646        117.100582546774        108.609124574501       -1.57148092770912        17.8253687122173      -0.301639749918588
25        121.553539796768        115.958810414147        108.623667336029        6.84683894292267        4.00547035741285      -0.317887142662853
26        110.436379858687        116.030439262879        108.706543284215       -7.38720532826592       -11.6687970762781       0.821359116063236
27        121.599833803095        118.176559898197        108.647491757271        4.20660019364152        3.00357847679232      -0.107787604312745
28        121.626980172581        113.811499455575        108.670231885881        4.89651177958905       -6.80812867561269       0.147605180591446
29        110.319669948058        118.134480684627         108.61670919733       -4.10789692954226        7.34430568906243      -0.410882139023433
30        110.345873582156        113.768477508626        108.638506591896       -5.02136783978208       -4.74931755608412     -0.0846042668697958
31        112.598023099348        112.613611077198        108.655010277105       -2.65001979500654        -4.2298242866875      0.0653870284656951
32        112.591203679923        119.348583500533        108.654954179324       -2.52715942991733        5.18054306984495      -0.170390475840069
33        119.371020198519        112.612970400198        108.647560665567        2.98680072885555       -4.46860850191445     -0.0204069708804082
34        119.383877610509        119.367619663756        108.667181403367        3.44055085126963        5.20606555927809     -0.0252262633089248
35        114.966654387733        112.573328378746        108.661221814866         3.6375725597944       -6.55830200532886      0.0467540064993663
36        114.926999294846        119.373296332305        108.628428186164        3.62746939149027        7.09155614830895      -0.129482364426825
37         117.02122873606        112.574261721777        108.660090812038       -2.43815293932986       -4.63685374588909     -0.0203170870320245
38        116.969363446407         119.36201947946        108.615086988876       -3.00616876371259        6.79807108742526      -0.313471596566269
39                     100                     100              105.656854                       0                       0                       0
40                     100                     100              102.828427                       0                       0                       0
41                     100                     100                     100                       0                       0                       0
42                     102                     102              105.656854                       0                       0                       0
43                     102                     102              102.828427                       0                       0                       0
44                     102                     102                     100                       0                       0                       0
45                     104                     100              105.656854                       0                       0                       0
46                     104                     100              102.828427                       0                       0                       0
47                     104                     100                     100                       0                       0                       0
48                     106                     102              105.656854                       0                       0                       0
49                     106                     102              102.828427                       0                       0                       0
50                     106                     102                     100                       0                       0                       0
51                     108                     100              105.656854                       0                       0                       0
52                     108                     100              102.828427                       0                       0                       0
53                     108                     100                     100                       0                       0                       0
54                     110                     102              105.656854                       0                       0                       0
55                     110                     102              102.828427                       0                       0                       0
56                     110                     102                     100                       0                       0                       0
57                     112                     100              105.656854                       0                       0                       0
58                     112                     100              102.828427                       0                       0                       0
59                     112                     100                     100                       0                       0                       0
60                     114                     102              105.656854                       0                       0                       0
61                     114                     102              102.828427                       0                       0                       0
62                     114                     102                     100                       0                       0                       0
63                     116                     100              105.656854                       0                       0                       0
64                     116                     100              102.828427                       0                       0                       0
65                     116                     100                     100                       0                       0                       0
66                     118                     102              105.656854                       0                       0                       0
67                     118                     102              102.828427                       0                       0                       0
68                     118                     102                     100                       0                       0                       0
69                     120                     100              105.656854                       0                       0                       0
70                     120                     100              102.828427                       0                       0                       0
71                     120                     100                     100                       0                       0                       0
72                     122                     102              105.656854                       0                       0                       0
73                     122                     102              102.828427                       0                       0                       0
74                     122                     102                     100                       0                       0                       0
75                     124                     100              105.656854                       0                       0                       0
76                     124                     100              102.828427                       0                       0                       0
77                     124                     100                     100                       0                       0                       0
78                     126                     102              105.656854                       0                       0                       0
79                     126                     102              102.828427                       0                       0                       0
80                     126                     102                     100                       0                       0                       0
81                     128                     100              105.656854                       0                       0                       0
82                     128                     100              102.828427                       0                       0                       0
83                     128                     100                     100                       0                       0                       0
84                     130                     102              105.656854                       0                       0                       0
85                     130                     102              102.828427                       0                       0                       0
86                     130                     102                     100                       0                       0                       0
87                     100                     104              105.656854                       0                       0                       0
88                     100                     104              102.828427                       0                       0                       0
89                     100                     104                     100                       0                       0                       0
90                     102                     106              105.656854                       0                       0                       0
91                     102                     106              102.828427                       0                       0                       0
92                     102                     106                     100                       0                       0                       0
93                     104                     104              105.656854                       0                       0                       0
94                     104                     104              102.828427                       0                       0                       0
95                     104                     104                     100                       0                       0                       0
96                     106                     106              105.656854                       0                       0                       0
97                     106                     106              102.828427                       0                       0                       0
98                     106                     106                     100                       0                       0                       0
99                     108                     104              105.656854                       0                       0                       0
100                     108                     104              102.828427                       0                       0                       0
101                     108                     104                     100                       0                       0                       0
102                     110                     106              105.656854                       0                       0                       0
103                     110                     106              102.828427                       0                       0                       0
104                     110                     106                     100                       0                       0                       0
105                     112                     104              105.656854                       0                       0                       0
106                     112                     104              102.828427                       0                       0                       0
107                     112                     104                     100                       0                       0                       0
108                     114                     106              105.656854                       0                       0                       0
109                     114                     106              102.828427                       0                       0                       0
110                     114                     106                     100                       0                       0                       0
111                     116                     104              105.656854                       0                       0                       0
112                     116                     104              102.828427                       0                       0                       0
113                     116                     104                     100                       0                       0                       0
114                     118                     106              105.656854                       0                       0                       0
115                     118                     106              102.828427                       0                       0                       0
116                     118                     106                     100                       0                       0                       0
117                     120                     104              105.656854                       0                       0                       0
118                     120                     104              102.828427                       0                       0                       0
119                     120                     104                     100                       0                       0                       0
120                     122                     106              105.656854                       0                       0                       0
121                     122                     106              102.828427                       0                       0                       0
122                     122                     106                     100                       0                       0                       0
123                     124                     104              105.656854                       0                       0                       0
124                     124                     104              102.828427                       0                       0                       0
125                     124                     104                     100                       0                       0                       0
126                     126                     106              105.656854                       0                       0                       0
127                     126                     106              102.828427                       0                       0                       0
128                     126                     106                     100                       0                       0                       0
129                     128                     104              105.656854                       0                       0                       0
130                     128                     104              102.828427                       0                       0                       0
131                     128                     104                     100                       0                       0                       0
132                     130                     106              105.656854                       0                       0                       0
133                     130                     106              102.828427                       0                       0                       0
134                     130                     106                     100                       0                       0                       0
135                     100                     108              105.656854                       0                       0                       0
136                     100                     108              102.828427                       0                       0                       0
137                     100                     108                     100                       0                       0                       0
138                     102                     110              105.656854                       0                       0                       0
139                     102                     110              102.828427                       0                       0                       0
140                     102                     110                     100                       0                       0                       0
141                     104                     108              105.656854                       0                       0                       0
142                     104                     108              102.828427                       0                       0                       0
143                     104                     108                     100                       0                       0                       0
144                     106                     110              105.656854                       0                       0                       0
145                     106                     110              102.828427                       0                       0                       0
146                     106                     110                     100                       0                       0                       0
147                     108                     108              105.656854                       0                       0                       0
148                     108                     108              102.828427                       0                       0                       0
149                     108                     108                     100                       0                       0                       0
150                     110                     110              105.656854                       0                       0                       0
151                     110                     110              102.828427                       0                       0                       0
152                     110                     110                     100                       0                       0                       0
153                     112                     108              105.656854                       0                       0                       0
154                     112                     108              102.828427                       0                       0                       0
155                     112                     108                     100                       0                       0                       0
156                     114                     110              105.656854                       0                       0                       0
157                     114                     110              102.828427                       0                       0                       0
158                     114                     110                     100                       0                       0                       0
159                     116                     108              105.656854                       0                       0                       0
160                     116                     108              102.828427                       0                       0                       0
161                     116                     108                     100                       0                       0                       0
162                     118                     110              105.656854                       0                       0                       0
163                     118                     110              102.828427                       0                       0                       0
164                     118                     110                     100                       0                       0                       0
165                     120                     108              105.656854                       0                       0                       0
166                     120                     108              102.828427                       0                       0                       0
167                     120                     108                     100                       0                       0                       0
168                     122                     110              105.656854                       0                       0                       0
169                     122                     110              102.828427                       0                       0                       0
170                     122                     110                     100                       0                       0                       0
171                     124                     108              105.656854                       0                       0                       0
172                     124                     108              102.828427                       0                       0                       0
173                     124                     108                     100                       0                       0                       0
174                     126                     110              105.656854                       0                       0                       0
175                     126                     110              102.828427                       0                       0                       0
176                     126                     110                     100                       0                       0                       0
177                     128                     108              105.656854                       0                       0                       0
178                     128                     108              102.828427                       0                       0                       0
179                     128                     108                     100                       0                       0                       0
180                     130                     110              105.656854                       0                       0                       0
181                     130                     110              102.828427                       0                       0                       0
182                     130                     110                     100                       0                       0                       0
183                     100                     112              105.656854                       0                       0                       0
184                     100                     112              102.828427                       0                       0                       0
185                     100                     112                     100                       0                       0                       0
186                     102                     114              105.656854                       0                       0                       0
187                     102                     114              102.828427                       0                       0                       0
188                     102                     114                     100                       0                       0                       0
189                     104                     112              105.656854                       0                       0                       0
190                     104                     112              102.828427                       0                       0                       0
191                     104                     112                     100                       0                       0                       0
192                     106                     114              105.656854                       0                       0                       0
193                     106                     114              102.828427                       0                       0                       0
194                     106                     114                     100                       0                       0                       0
195                     108                     112              105.656854                       0                       0                       0
196                     108                     112              102.828427                       0                       0                       0
197                     108                     112                     100                       0                       0                       0
198                     110                     114              105.656854                       0                       0                       0
199                     110                     114              102.828427                       0                       0                       0
200                     110                     114                     100                       0                       0                       0
201                     112                     112              105.656854                       0                       0                       0