ITEM: TIMESTEP
0
ITEM: NUMBER OF ATOMS
422
ITEM: BOX BOUNDS ff ff ff
0.0000000000000000e+00 2.3200000000000000e+02
0.0000000000000000e+00 2.3200000000000000e+02
0.0000000000000000e+00 2.3200000000000000e+02
ITEM: ATOMS id xu yu zu fx fy fz
1        113.135692575426        115.973281197265        108.646614381588      0.0954186826127647      -0.469147375547202      -0.120652083016989
2        118.797773249221        115.959514650784         108.62714240915        2.85491376600888         3.4679762505263       0.632524442307945
3        117.398523472914        115.983973591762        108.653032478997       -1.28883197576745       -1.44857421858923       -0.18423466228443
4          114.5736327824        115.987512686387        108.659414743451        -2.3563010618011       -2.24985173749093      -0.516160365521792
5        116.684199625405          114.7328493078        108.639978457636      -0.166665730632508      -0.115903869655738    -0.00415396535381361
6        115.247757907305        114.721223525149        108.629784916437       0.581759867130951       0.718496488258573       0.121364012149737
7        115.249454620019        117.200134960379        108.633966754991        3.08864977065922        3.08580101653554        0.78752375918408
8        116.695467771443        117.221332176604        108.653731730021       -2.23904538504283       -2.64120166545592       -0.53400882545617
9         114.47524559007        113.505934910488        108.614342669313        1.71564113664601        2.20589023877074       0.283570924090095
10          117.4372698259        113.528117747055        108.633570343169        1.71612867073856       0.709761930349607       0.184861925995708
11        114.542527211412        118.451009312532        108.686517660639       -4.22943308776771       -4.80105058547886      -0.788976671142866
12        117.410031563362        118.378672266886        108.611225452707        4.88417824752327        5.19014281621075        1.12267925392578
13        113.108508171907        113.543641499568        108.638050911671      -0.626706770069808      0.0815406735915288      -0.132529368292877
14        113.112226338051        118.394332292211        108.646631529937        1.93881032454361         1.7229288391282       0.488864789763567
15        118.869749443017        113.586973510421        108.675635216849       -0.55371195486663       0.388444771404098       0.203733406049432
16        118.873673675261        118.437870374345        108.684421903764       -4.16260445332535       -3.47754714627166      -0.892097568294622
17        112.408784255257        117.176308360758        108.638842417118        2.99226851367909        3.48623968772264       0.519003224257565
18        112.407095168344        114.749145924668        108.634720109605        3.10462323848129        2.65872332536751       0.664250570232075
19        119.590591621019        114.822397536599        108.700824424327       -5.89757175847341       -5.96219794415252      -0.915808346082297
20        119.521252608104        117.178531876035        108.633918633075     -0.0136287100802721       0.938521322842483     -0.0434491014553323
21        120.936136904184        114.805436967383         108.63785588156        2.93287026090849        2.76993810817672       0.568656329535647
22        120.909307829021        117.114804696346         108.61337046677         5.0135437446464        5.72782427678888       0.863063138928563
23        111.062640197397        114.856473353728        108.698868524236       -8.17600376287315       -9.11710649769939       -1.66065863116707
24        111.060908242156        117.190938201284         108.69948022901       -6.20804448667463         -6.392040437311       -1.24241821574624
25         121.55742825038        115.962698867759        108.627555789641      -0.166427812327547      0.0224876732421269      -0.439683202157903
26        110.399136683566        115.993196087758        108.669300109094        3.52114358708512        2.84008966735254        1.07770606641765
27        121.620811846926        118.197537942029        108.668469801102       -3.28819136490632       -4.35929301265199      -0.462875503293004
28         121.61805514517        113.802574428164        108.661306858469      -0.688640329597567       -1.00894808896835     -0.0898959373279331
29        110.329123752992         118.14393448956        108.626163002264        1.67380663191221        2.64520357077787       0.281740589548666
30        110.335459958464        113.758063884933        108.628092968203        4.15539716885191        5.67560999058928       0.764305213584823
31        112.607873211766        112.623461189617        108.664860389523      -0.746582052547897      -0.901212377362512      0.0223565463095142
32        112.642168546982        119.399548367592        108.705919046383      -0.486982934662562       -1.08677265769661      -0.217574076720116
33        119.417243667964        112.659193869643        108.693784135012     -0.0497996963672167      -0.311332830460522     -0.0369293286235083
34        119.392261374839        119.376003428085        108.675565167696       0.265469367167571       0.315607547454507       0.100423023455897
35        114.969347174124        112.576021165137        108.663914601257      -0.489802804777834      -0.880019521291731      -0.111452853871572
36        114.927352719204        119.373649756663        108.628781610522        1.53139765458787        1.98873117071751       0.116555326241182
37        116.986574919889        112.539607905607        108.625436995868       0.459397470323098       0.231848676385055     -0.0390027204059181
38        117.046216274385        119.438872307439        108.691939816854      -0.690441970944537       -1.64960807610832      -0.370621115763466
39                     100                     100              105.656854                       0                       0                       0
40                     100                     100              102.828427                       0                       0                       0
41                     100                     100                     100                       0                       0                       0
42                     102                     102              105.656854                       0                       0                       0
43                     102                     102              102.828427                       0                       0                       0
44                     102                     102                     100                       0                       0                       0
45                     104                     100              105.656854                       0                       0                       0
46                     104                     100              102.828427                       0                       0                       0
47                     104                     100                     100                       0                       0                       0
48                     106                     102              105.656854                       0                       0                       0
49                     106                     102              102.828427                       0                       0                       0
50                     106                     102                     100                       0                       0                       0
51                     108                     100              105.656854                       0                       0                       0
52                     108                     100              102.828427                       0                       0                       0
53                     108                     100                     100                       0                       0                       0
54                     110                     102              105.656854                       0                       0                       0
55                     110                     102              102.828427                       0                       0                       0
56                     110                     102                     100                       0                       0                       0
57                     112                     100              105.656854                       0                       0                       0
58                     112                     100              102.828427                       0                       0                       0
59                     112                     100                     100                       0                       0                       0
60                     114                     102              105.656854                       0                       0                       0
61                     114                     102              102.828427                       0                       0                       0
62                     114                     102                     100                       0                       0                       0
63                     116                     100              105.656854                       0                       0                       0
64                     116                     100              102.828427                       0                       0                       0
65                     116                     100                     100                       0                       0                       0
66                     118                     102              105.656854                       0                       0                       0
67                     118                     102              102.828427                       0                       0                       0
68                     118                     102                     100                       0                       0                       0
69                     120                     100              105.656854                       0                       0                       0
70                     120                     100              102.828427                       0                       0                       0
71                     120                     100                     100                       0                       0                       0
72                     122                     102              105.656854                       0                       0                       0
73                     122                     102              102.828427                       0                       0                       0
74                     122                     102                     100                       0                       0                       0
75                     124                     100              105.656854                       0                       0                       0
76                     124                     100              102.828427                       0                       0                       0
77                     124                     100                     100                       0                       0                       0
78                     126                     102              105.656854                       0                       0                       0
79                     126                     102              102.828427                       0                       0                       0
80                     126                     102                     100                       0                       0                       0
81                     128                     100              105.656854                       0                       0                       0
82                     128                     100              102.828427                       0                       0                       0
83                     128                     100                     100                       0                       0                       0
84                     130                     102              105.656854                       0                       0                       0
85                     130                     102              102.828427                       0                       0                       0
86                     130                     102                     100                       0                       0                       0
87                     100                     104              105.656854                       0                       0                       0
88                     100                     104              102.828427                       0                       0                       0
89                     100                     104                     100                       0                       0                       0
90                     102                     106              105.656854                       0                       0                       0
91                     102                     106              102.828427                       0                       0                       0
92                     102                     106                     100                       0                       0                       0
93                     104                     104              105.656854                       0                       0                       0
94                     104                     104              102.828427                       0                       0                       0
95                     104                     104                     100                       0                       0                       0
96                     106                     106              105.656854                       0                       0                       0
97                     106                     106              102.828427                       0                       0                       0
98                     106                     106                     100                       0                       0                       0
99                     108                     104              105.656854                       0                       0                       0
100                     108                     104              102.828427                       0                       0                       0
101                     108                     104                     100                       0                       0                       0
102                     110                     106              105.656854                       0                       0                       0
103                     110                     106              102.828427                       0                       0                       0
104                     110                     106                     100                       0                       0                       0
105                     112                     104              105.656854                       0                       0                       0
106                     112                     104              102.828427                       0                       0                       0
107                     112                     104                     100                       0                       0                       0
108                     114                     106              105.656854                       0                       0                       0
109                     114                     106              102.828427                       0                       0                       0
110                     114                     106                     100                       0                       0                       0
111                     116                     104              105.656854                       0                       0                       0
112                     116                     104              102.828427                       0                       0                       0
113                     116                     104                     100                       0                       0                       0
114                     118                     106              105.656854                       0                       0                       0
115                     118                     106              102.828427                       0                       0                       0
116                     118                     106                     100                       0                       0                       0
117                     120                     104              105.656854                       0                       0                       0
118                     120                     104              102.828427                       0                       0                       0
119                     120                     104                     100                       0                       0                       0
120                     122                     106              105.656854                       0                       0                       0
121                     122                     106              102.828427                       0                       0                       0
122                     122                     106                     100                       0                       0                       0
123                     124                     104              105.656854                       0                       0                       0
124                     124                     104              102.828427                       0                       0                       0
125                     124                     104                     100                       0                       0                       0
126                     126                     106              105.656854                       0                       0                       0
127                     126                     106              102.828427                       0                       0                       0
128                     126                     106                     100                       0                       0                       0
129                     128                     104              105.656854                       0                       0                       0
130                     128                     104              102.828427                       0                       0                       0
131                     128                     104                     100                       0                       0                       0
132                     130                     106              105.656854                       0                       0                       0
133                     130                     106              102.828427                       0                       0                       0
134                     130                     106                     100                       0                       0                       0
135                     100                     108              105.656854                       0                       0                       0
136                     100                     108              102.828427                       0                       0                       0
137                     100                     108                     100                       0                       0                       0
138                     102                     110              105.656854                       0                       0                       0
139                     102                     110              102.828427                       0                       0                       0
140                     102                     110                     100                       0                       0                       0
141                     104                     108              105.656854                       0                       0                       0
142                     104                     108              102.828427                       0                       0                       0
143                     104                     108                     100                       0                       0                       0
144                     106                     110              105.656854                       0                       0                       0
145                     106                     110              102.828427                       0                       0                       0
146                     106                     110                     100                       0                       0                       0
147                     108                     108              105.656854                       0                       0                       0
148                     108                     108              102.828427                       0                       0                       0
149                     108                     108                     100                       0                       0                       0
150                     110                     110              105.656854                       0                       0                       0
151                     110                     110              102.828427                       0                       0                       0
152                     110                     110                     100                       0                       0                       0
153                     112                     108              105.656854                       0                       0                       0
154                     112                     108              102.828427                       0                       0                       0
155                     112                     108                     100                       0                       0                       0
156                     114                     110              105.656854                       0                       0                       0
157                     114                     110              102.828427                       0                       0                       0
158                     114                     110                     100                       0                       0                       0
159                     116                     108              105.656854                       0                       0                       0
160                     116                     108              102.828427                       0                       0                       0
161                     116                     108                     100                       0                       0                       0
162                     118                     110              105.656854                       0                       0                       0
163                     118                     110              102.828427                       0                       0                       0
164                     118                     110                     100                       0                       0                       0
165                     120                     108              105.656854                       0                       0                       0
166                     120                     108              102.828427                       0                       0                       0
167                     120                     108                     100                       0                       0                       0
168                     122                     110              105.656854                       0                       0                       0
169                     122                     110              102.828427                       0                       0                       0
170                     122                     110                     100                       0                       0                       0
171                     124                     108              105.656854                       0                       0                       0
172                     124                     108              102.828427                       0                       0                       0
173                     124                     108                     100                       0                       0                       0
174                     126                     110              105.656854                       0                       0                       0
175                     126                     110              102.828427                       0                       0                       0
176                     126                     110                     100                       0                       0                       0
177                     128                     108              105.656854                       0                       0                       0
178                     128                     108              102.828427                       0                       0                       0
179                     128                     108                     100                       0                       0                       0
180                     130                     110              105.656854                       0                       0                       0
181                     130                     110              102.828427                       0                       0                       0
182                     130                     110                     100                       0                       0                       0
183                     100                     112              105.656854                       0                       0                       0
184                     100                     112              102.828427                       0                       0                       0
185                     100                     112                     100                       0                       0                       0
186                     102                     114              105.656854                       0                       0                       0
187                     102                     114              102.828427                       0                       0                       0
188                     102                     114                     100                       0                       0                       0
189                     104                     112              105.656854                       0                       0                       0
190                     104                     112              102.828427                       0                       0                       0
191                     104                     112                     100                       0                       0                       0
192                     106                     114              105.656854                       0                       0                       0
193                     106                     114              102.828427                       0                       0                       0
194                     106                     114                     100                       0                       0                       0
195                     108                     112              105.656854                       0                       0                       0
196                     108                     112              102.828427                       0                       0                       0
197                     108                     112                     100                       0                       0                       0
198                     110                     114              105.656854                       0                       0                       0
199                     110                     114              102.828427                       0                       0                       0
200                     110                     114                     100                       0                       0                       0
201                     112                     112              105.656854                       0                       0                       0