ITEM: TIMESTEP
0
ITEM: NUMBER OF ATOMS
422
ITEM: BOX BOUNDS pp pp pp
0.0000000000000000e+00 3.2000000000000000e+01
0.0000000000000000e+00 3.2000000000000000e+01
0.0000000000000000e+00 3.2000000000000000e+01
ITEM: ATOMS id xu yu zu fx fy fz
1        12.2459321938386        15.9835208156773                 8.65685    -0.00151570393964216    0.000125476520105727    -0.00386500051952139
2        17.9274848400711        15.9892262416344                 8.65685   -0.000848575238508537    0.000566330836011236       0.018830321439539
3         16.502344993917         15.987795112765                 8.65685    -0.00313738006326897    0.000149562758938196    -0.00206946130125234
4         13.671072038949        15.9849519429358                 8.65685    -0.00357977463430326    0.000742137085233921      0.0168880286473437
5        15.8010751677692        14.7497248501637                 8.65685     0.00732504070730272     0.00658440341719772      0.0123286939935371
6        14.3748269908674        14.7482926087119                 8.65685      0.0186536712471966      0.0372656120143193        0.12577521801407
7        14.3723418650276        17.2230222053877                 8.65685      0.0180478860252664     -0.0376809199488142       0.122088008536086
8        15.7985900414216        17.2244544465825                 8.65685     0.00723120284779616    -0.00664041081349222      0.0118243186060356
9        13.6177569207574        13.5484462411751                 8.65685     -0.0237263508873493     -0.0280363738641743       0.160986775448417
10        16.5605534827313        13.5514014038861                 8.65685      -0.024622742263017    -0.00856033842580124       0.039600313695745
11        13.6128635507729         18.421345651893                 8.65685     -0.0243761429365603      0.0265337282739324       0.163551498417273
12        16.5556601106552        18.4243008141789                 8.65685     -0.0247627638851089     0.00814473381685556      0.0398819848472188
13        12.2273112602357        13.5624445878976                 8.65685     -0.0105572529315932    -0.00514442659071887      0.0194989265362363
14        12.2224488081137        18.4045547622743                 8.65685     -0.0105161525676454     0.00482303238846648      0.0198781763305696
15         17.950968226168        13.5681922935721                 8.65685    -0.00336676907477235     -0.0296815085295735       0.180138367093033
16        17.9461057714963        18.4103024705805                 8.65685    -0.00374215456909627      0.0285169578770991       0.182359097972244
17         11.526795838139        17.1943199436399                 8.65685      0.0159585154253094    -0.00990700767966755      0.0218013505592352
18        11.5292290587396        14.7712798150634                 8.65685      0.0164422293507139     0.00979724015953655      0.0228112859494629
19        18.6466211966922        14.7784271122721                 8.65685      0.0262730753355373      0.0316216298674027       0.099757850342261
20        18.6441879750283        17.2014672429596                 8.65685      0.0257080970120824     -0.0318562297567606      0.0977182994900153
21        20.0551350226241        14.8244350858224                 8.65685    -0.00189330015711338     0.00599439670844903     0.00858639810020276
22        20.0527913622507        17.1582882295758                 8.65685    -0.00177968010490387     -0.0059884122662206     0.00823298536318047
23        10.1206256731611        14.8144588294926                 8.65685     0.00608512139843497      0.0411133757452597        0.12780848071002
24        10.1182820131454        17.1483119722736                 8.65685     0.00574101995209627     -0.0413409591787413       0.122357497356629
25        20.6867264607395        15.9919970781177                 8.65685     -0.0013660425201086    5.18044829279063e-05    -0.00835656427784515
26         9.4866905744716        15.9807499786644                 8.65685    -0.00177182872018332    0.000346599800859144    -0.00275099998836355
27         20.709196045824        18.1859221409264                 8.65685     -0.0135115453449331      0.0019777952466529       0.017004404737707
28        20.7136022867001        13.7981215696947                 8.65685       -0.01352106517358    -0.00215415563915945      0.0170983408108534
29        9.45981475072747        18.1746254872963                 8.65685     -0.0141420119048531     0.00455524862376649      0.0609820396063339
30        9.46422099026049        13.7868249167297                 8.65685     -0.0139329873012482    -0.00552515286052009      0.0604831985250499
31        11.6998668222426        12.6154548000933                 8.65685    0.000270017552050222   -0.000131200603473036    -0.00990381271013648
32        11.6931035005993        19.3504833212092                 8.65685    0.000311124953648792    0.000153169388212987    -0.00984162379975113
33        18.4803135329519        12.6222637346313                 8.65685    0.000835721356716545    -0.00272578289420384    -0.00511748807277772
34        18.4735502071424         19.357292260389                 8.65685    0.000868657050212926     0.00281772840289013    -0.00485396144280693
35        14.0622865728669        12.5689605638796                 8.65685    0.000114304429691731    -0.00297821751086539    -0.00476693873291324
36         14.055425108682        19.4017221461408                 8.65685    0.000109028031831493     0.00311801223416192    -0.00439519054211495
37        16.1179919240215        12.5710249097393                 8.65685   -8.66376545016721e-05    4.64413219204131e-06     -0.0101388710377269
38         16.111130457531        19.4037864905846                 8.65685   -9.04103224736996e-05   -1.07354339176635e-06     -0.0101197188397702
39                       0                       0                5.656854                       0                       0                       0
40                       0                       0                2.828427                       0                       0                       0
41                       0                       0                       0                       0                       0                       0
42                       2                       2                5.656854    1.45878624773017e-09    2.11492429494329e-09    5.50255962475969e-10
43                       2                       2                2.828427                       0                       0                       0
44                       2                       2                       0                       0                       0                       0
45                       4                       0                5.656854                       0                       0                       0
46                       4                       0                2.828427                       0                       0                       0
47                       4                       0                       0                       0                       0                       0
48                       6                       2                5.656854    2.80596683832849e-08    6.40043175349557e-08    1.66181600133165e-08
49                       6                       2                2.828427     9.6906623377654e-10    2.27003317019145e-09    1.15226125734437e-09
50                       6                       2                       0     1.8161792697823e-10    3.38245954659951e-10    2.75837874847553e-10
51                       8                       0                5.656854    9.86110169712535e-10    7.72894860763534e-11    7.81945957659619e-10
52                       8                       0                2.828427    4.70869580393454e-10    3.33769487286783e-11    7.42427336120557e-10
53                       8                       0                       0                       0                       0                       0
54                      10                       2                5.656854    8.48873914322248e-08    4.06425164734448e-07    1.07900503275423e-07
55                      10                       2                2.828427    2.99179034034904e-09    1.44227724179528e-08    7.43490872385744e-09
56                      10                       2                       0    1.37547708735831e-09    6.53872834936858e-09    5.07576133161265e-09
57                      12                       0                5.656854    1.12118263346122e-09    2.45025556772057e-10     2.5896691058378e-09
58                      12                       0                2.828427    1.23036553842096e-09    2.75857896389509e-10    6.03137790405572e-09
59                      12                       0                       0                       0                       0                       0
60                      14                       2                5.656854    2.65187119099894e-08    7.87943425275939e-07    2.11653374167764e-07
61                      14                       2                2.828427    9.40787617409336e-10    2.74429679811573e-08    1.42810250958165e-08
62                      14                       2                       0    6.03276255073508e-10    1.24264237142434e-08    9.71489640396205e-09
63                      16                       0                5.656854   -3.81585712989177e-10    2.69289681761545e-10    3.28785619474161e-09
64                      16                       0                2.828427   -2.90202896346597e-10    3.14593748738073e-10    8.11863866000948e-09
65                      16                       0                       0                       0                       0                       0
66                      18                       2                5.656854   -6.77808398639031e-08    6.57905597502821e-07    1.76171006863058e-07
67                      18                       2                2.828427   -2.42027657920935e-09    2.30348274111367e-08    1.19496258623142e-08
68                      18                       2                       0   -6.55694173910661e-10    9.37171412395721e-09    7.32308346789177e-09
69                      20                       0                5.656854    -1.2845835078882e-09    1.20780116247224e-10    1.69235237575313e-09
70                      20                       0                2.828427   -1.18613564916574e-09    7.41589521290651e-10     3.4326215857211e-09
71                      20                       0                       0                       0                       0                       0
72                      22                       2                5.656854    -6.2429713066642e-08    2.01881669298533e-07     5.3078611812867e-08
73                      22                       2                2.828427   -2.27697925231713e-09    7.42992122131511e-09    3.79753469832837e-09
74                      22                       2                       0   -6.02002072033415e-10    2.18902377146918e-09    1.71414196042226e-09
75                      24                       0                5.656854   -3.09102186183217e-10    1.27946951715333e-11    2.10299005569534e-10
76                      24                       0                2.828427   -2.86186969455545e-10    9.59683583278782e-12    3.02012301071971e-10
77                      24                       0                       0                       0                       0                       0
78                      26                       2                5.656854   -9.14338951339784e-09    1.66441875373316e-08    4.30371460405559e-09
79                      26                       2                2.828427   -2.58078068601557e-10     4.9045390283205e-10    2.50355103580976e-10
80                      26                       2                       0                       0                       0                       0
81                      28                       0                5.656854                       0                       0                       0
82                      28                       0                2.828427                       0                       0                       0
83                      28                       0                       0                       0                       0                       0
84                      30                       2                5.656854                       0                       0                       0
85                      30                       2                2.828427                       0                       0                       0
86                      30                       2                       0                       0                       0                       0
87                       0                       4                5.656854    4.67142895499332e-10     4.6348091376494e-10    1.44091662760084e-10
88                       0                       4                2.828427    5.82024006868317e-10    6.01863276271293e-10    3.58432258891082e-10
89                       0                       4                       0                       0                       0                       0
90                       2                       6                5.656854    2.47709284742738e-07     2.4782725258666e-07    9.24642240206298e-08
91                       2                       6                2.828427     8.6024215744272e-09    8.60539351063394e-09    6.22083981729991e-09
92                       2                       6                       0    3.48469338815683e-09    3.50811078872004e-09    3.83558923006664e-09
93                       4                       4                5.656854    2.20344878707361e-08    3.35986010824403e-08    1.02632624318668e-08
94                       4                       4                2.828427    2.62446353352576e-08    3.96161108522248e-08    2.35199032564245e-08
95                       4                       4                       0    2.44446615879597e-10    3.83478343351707e-10    3.50081734674249e-10
96                       6                       6                5.656854    5.87943223389085e-06    9.96370090664353e-06    3.83638938473374e-06
97                       6                       6                2.828427    1.51308087140652e-07    2.52097924329435e-07    1.87074774136342e-07
98                       6                       6                       0    5.56671666104752e-08     9.1208880793006e-08    9.98605553747361e-08
99                       8                       4                5.656854    1.79865131661457e-07    4.93936394996519e-07    1.55993893447935e-07
100                       8                       4                2.828427    1.76762527871756e-07    4.80032679521633e-07    2.92367799379669e-07
101                       8                       4                       0     2.2558506019542e-09    6.23125112853697e-09    5.63547596080183e-09
102                      10                       6                5.656854    2.48875689330854e-05    9.32897253718379e-05    3.79348297205522e-05
103                      10                       6                2.828427    4.95879343487566e-07    1.81735686049684e-06    1.41038220541229e-06
104                      10                       6                       0    1.44951807817259e-07    5.17184530182132e-07    5.85090292391667e-07
105                      12                       4                5.656854    2.19125805851616e-07    1.87048919486041e-06    6.07462500059529e-07
106                      12                       4                2.828427    1.99102424874495e-07    1.61709754228102e-06    1.01003952612904e-06
107                      12                       4                       0     2.4355093641392e-09    1.94090649130615e-08    1.78528162281672e-08
108                      14                       6                5.656854    5.89586830585106e-06    0.000192896432610763    8.03879986390463e-05
109                      14                       6                2.828427    1.28018697643575e-07    3.49366325473131e-06    2.77492662812134e-06
110                      14                       6                       0    4.03270574071973e-08    9.30551594948306e-07    1.07456689724539e-06
111                      16                       4                5.656854   -6.57460463640606e-08    2.29948423185741e-06    7.50793877806795e-07
112                      16                       4                2.828427   -6.15843362116718e-08    1.97005822072362e-06    1.23716758032654e-06
113                      16                       4                       0   -7.32213731532359e-10    2.34276574229753e-08    2.16578397307422e-08
114                      18                       6                5.656854   -1.88545086225489e-05    0.000162760244624066    6.73423666162612e-05
115                      18                       6                2.828427    -3.7286606052719e-07    2.97009733243974e-06    2.34265304080756e-06
116                      18                       6                       0   -1.09000063476091e-07     7.9797102275584e-07    9.15576863810811e-07
117                      20                       4                5.656854    -2.6780677091101e-07    1.20099015277917e-06    3.86103414990751e-07
118                      20                       4                2.828427   -2.44126901136729e-07    1.07493674358702e-06    6.65247190221106e-07
119                      20                       4                       0   -3.02339625012769e-09    1.32956455244436e-08    1.21340834654497e-08
120                      22                       6                5.656854   -1.64028251979187e-05    4.02603799219715e-05    1.59561835604244e-05
121                      22                       6                2.828427   -3.62194793195099e-07    8.73499610597419e-07    6.63575360051074e-07
122                      22                       6                       0   -1.15686872756478e-07    2.73492314718139e-07    3.04334771950088e-07
123                      24                       4                5.656854   -8.31957155196695e-08    1.69426860902223e-07    5.25535580343802e-08
124                      24                       4                2.828427   -8.81603538783961e-08    1.78455589163592e-07    1.07144817524148e-07
125                      24                       4                       0    -1.2847175248445e-09    2.55715083869631e-09    2.28990771557803e-09
126                      26                       6                5.656854   -1.65829251973365e-06    2.16066877651324e-06    8.16725503685218e-07
127                      26                       6                2.828427   -4.94093190707565e-08    6.37207118058874e-08    4.64894180633606e-08
128                      26                       6                       0   -2.07198485867215e-08    2.62532835519139e-08    2.85591648002974e-08
129                      28                       4                5.656854   -5.10523719503909e-09    6.33818224647719e-09    1.91947856091044e-09
130                      28                       4                2.828427   -5.40017914460842e-09    6.86140514751274e-09    4.06715693115962e-09
131                      28                       4                       0   -6.16912653053808e-11    8.29571128332857e-11    7.32943837369844e-11
132                      30                       6                5.656854   -3.47379141099264e-08    3.16883340552248e-08    1.17965019049081e-08
133                      30                       6                2.828427   -1.34358188236996e-09    1.13569206511885e-09    8.17734942918213e-10
134                      30                       6                       0   -4.96185284102747e-10    4.16664597617347e-10    4.62547664799349e-10
135                       0                       8                5.656854    3.00144269432775e-08    2.27910433772255e-08    1.09238598932995e-08
136                       0                       8                2.828427    3.49307321909331e-08    2.64159082130977e-08    2.46178620469878e-08
137                       0                       8                       0    4.76394476602802e-10    3.00525680604709e-10    4.26898028945026e-10
138                       2                      10                5.656854    9.86272725258053e-06    5.46076963194968e-06    3.77472402721367e-06
139                       2                      10                2.828427    2.44417173005824e-07    1.36807992957965e-07    1.79622593668931e-07
140                       2                      10                       0    8.77145489567827e-08    4.96791762031237e-08    9.44843745359769e-08
141                       4                       8                5.656854    2.43668564574016e-06    2.44661245752689e-06    1.21089106457238e-06
142                       4                       8                2.828427    1.81667675364282e-06    1.80699766718119e-06    1.71586713765694e-06
143                       4                       8                       0    1.89581602345101e-08    1.87362002346497e-08    2.60478496874071e-08
144                       6                      10                5.656854    0.000603804390144622     0.00061172457380424    0.000448620869302654
145                       6                      10                2.828427    7.35561465488139e-06    7.28463159518692e-06    1.00511633568454e-05
146                       6                      10                       0    1.42834612328487e-06    1.38472780378531e-06    2.73769922250437e-06
147                       8                       8                5.656854    3.58734082122251e-05    7.18186412280852e-05    3.76958219094064e-05
148                       8                       8                2.828427    1.71104877098283e-05    3.30560135092372e-05    3.29803659931283e-05
149                       8                       8                       0    1.20654267213295e-07    2.24722536368856e-07    3.24827040107011e-07
150                      10                      10                5.656854     0.00332867789681791     0.00839942053336498     0.00688258339950117
151                      10                      10                2.828427    2.64555322303333e-05    6.44424037307641e-05    9.69962044613055e-05
152                      10                      10                       0    3.63109401659257e-06    8.32997868717126e-06    1.75668262822812e-05
153                      12                       8                5.656854    4.85830520715343e-05    0.000353071436185624    0.000200143153875555
154                      12                       8                2.828427    1.89085821456404e-05    0.000123541027347877    0.000130931562263635
155                      12                       8                       0    1.16318786469891e-07    6.84694300902655e-07      1.036687930068e-06
156                      14                      10                5.656854    0.000289636375699673      0.0155035907955876       0.013626508478272
157                      14                      10                2.828427    3.78112249984247e-06    0.000114542325975654    0.000183660455159875
158                      14                      10                       0    7.58253908252978e-07    1.38707710592439e-05    3.06732866950701e-05
159                      16                       8                5.656854   -8.57244822611632e-06    0.000419741033936903    0.000240859347650337
160                      16                       8                2.828427   -4.44158962241902e-06    0.000146350378470504    0.000156928425005837
161                      16                       8                       0   -3.27241354454855e-08    8.06824593177078e-07    1.23461155891141e-06
162                      18                      10                5.656854    -0.00218788029758662      0.0138637460048093      0.0119758110329072
163                      18                      10                2.828427   -1.71965408059597e-05    0.000102309158948392    0.000161360592268425
164                      18                      10                       0   -2.39586003599241e-06    1.23235673263736e-05    2.68643440643713e-05
165                      20                       8                5.656854   -6.37172273740198e-05    0.000211566179474443    0.000116814051890816
166                      20                       8                2.828427   -2.50694103155698e-05    8.10047544572239e-05     8.3859158679248e-05
167                      20                       8                       0   -1.54571933789509e-07    4.78097180195898e-07    7.10196573072368e-07
168                      22                      10                5.656854    -0.00210095158014117     0.00343083679433383     0.00263136662191143
169                      22                      10                2.828427   -1.95474614711807e-05    3.01922194379905e-05    4.32655774591107e-05
170                      22                      10                       0   -3.03258686324107e-06    4.43858459072693e-06    9.04648349487905e-06
171                      24                       8                5.656854   -1.33882973535497e-05    1.90608900047762e-05    9.66123831718321e-06
172                      24                       8                2.828427   -7.71262786579332e-06    1.06793292772146e-05    1.03599205994687e-05
173                      24                       8                       0   -6.38274560468184e-08    8.60906405413524e-08    1.21798492747218e-07
174                      26                      10                5.656854   -0.000113412028711478    8.34327523731664e-05    5.94345317370548e-05
175                      26                      10                2.828427   -1.92257854812888e-06    1.41647056776388e-06    1.90521923322048e-06
176                      26                      10                       0   -4.88038997526462e-07    3.59766539479986e-07    6.96691585005203e-07
177                      28                       8                5.656854   -3.93593994180465e-07    3.13248203231861e-07    1.52354833823849e-07
178                      28                       8                2.828427    -3.6647129313943e-07    2.91458118071257e-07    2.72559115270547e-07
179                      28                       8                       0   -4.63423655076298e-09     3.6872287543449e-09    5.09751153304109e-09
180                      30                      10                5.656854   -9.50486950414257e-07     4.8760551923696e-07      3.280713539992e-07
181                      30                      10                2.828427   -3.03140236965501e-08    1.58715570090478e-08    2.04107537793609e-08
182                      30                      10                       0   -1.18359731412068e-08    5.94161417016523e-09    1.18273839330437e-08
183                       0                      12                5.656854    3.70895577756982e-07    1.22440891546183e-07    1.31683037493642e-07
184                       0                      12                2.828427    3.54340487813026e-07     1.2402668799774e-07    2.51304776333862e-07
185                       0                      12                       0    4.69738815953167e-09     1.6147085169144e-09    4.77816912631914e-09
186                       2                      14                5.656854    6.51570321917586e-05    9.89518195488507e-06    2.50223246524654e-05
187                       2                      14                2.828427    1.32522179545972e-06    2.15778440277805e-07    9.78406080182518e-07
188                       2                      14                       0    3.87578210610228e-07     6.6881825163166e-08    4.19279467659708e-07
189                       4                      12                5.656854    7.04309849546684e-05    2.99794755307945e-05    3.62520314538113e-05
190                       4                      12                2.828427    3.13278957327128e-05     1.3902882511925e-05    3.05472072326339e-05
191                       4                      12                       0    2.08697090165364e-07    9.55877411216694e-08     2.9320492182243e-07
192                       6                      14                5.656854     0.00750980722356181     0.00186863314479829     0.00574762795801156
193                       6                      14                2.828427    5.83229468246953e-05     1.5914782801249e-05    8.29092708876422e-05
194                       6                      14                       0    7.48915649899652e-06    2.20667953835952e-06    1.48888160572159e-05
195                       8                      12                5.656854      0.0019702852449826     0.00197241040145444     0.00259079010143563
196                       8                      12                2.828427    0.000402505326682437     0.00038851708920944    0.000927276149892668
197                       8                      12                       0    1.46229824489148e-06    1.35444528267484e-06    4.42931370808107e-06
198                      10                      14                5.656854     0.00197650869460538     -0.0313220724339655      -0.231491921800363
199                      10                      14                2.828427    0.000172438211590296    0.000143734515976908    0.000866275510127999
200                      10                      14                       0    1.65551510433366e-05    1.28585006583991e-05    9.61527382262755e-05
201                      12                      12                5.656854     0.00122891465879354     0.00515873164524955     0.00715388391681942