ITEM: TIMESTEP
0
ITEM: NUMBER OF ATOMS
422
ITEM: BOX BOUNDS pp pp pp
0.0000000000000000e+00 3.2000000000000000e+01
0.0000000000000000e+00 3.2000000000000000e+01
0.0000000000000000e+00 3.2000000000000000e+01
ITEM: ATOMS id xu yu zu fx fy fz
1        13.1565131371455        15.9941017589842        8.66743094330696        -1.2877394125766      -0.407302859335054     -0.0591860361702762
2        18.8406380291085        16.0023794306718         8.6700031890374      0.0874140403731584         1.2242323786264       0.238333482235311
3         17.397681788419         15.983131907267        8.65218679450206        2.04734321778603        2.41139855568828       0.424969639422343
4         14.535070729056        15.9489506330428        8.62084869010693        4.48118207013572        3.81866010421207        0.84352285359958
5        16.7292559097904        14.7779055921849        8.68503074202116       -2.38311351461547       -2.02314407847164      -0.440125810230862
6        15.2757357955871        14.7492014134316        8.65775880471972       0.155639517954171      -0.194629813567888     -0.0292431489136718
7        15.2773819127377        17.2280622530978         8.6618900477101       -2.63091188450319       -3.30837232145847      -0.767501322699362
8         16.706228240823         17.232092645984        8.66448819940143       0.161606521432422        0.50528936312169      0.0872466352049425
9         14.524406290735        13.5550956111528        8.66349936997765       0.571407532609064       0.312526128944264       0.319462847066445
10        17.4797563551843         13.570604276339        8.67605287245295      -0.311054840596219       0.344544575575873       0.191824812789656
11        14.4642985600521        18.3727806611722        8.60828500927918        6.58618929197377        6.73127394195759         1.3154576948355
12        17.4808580960998        18.4494987996235        8.68204798544462      -0.275979845166572      -0.503527707713823       0.195760660922537
13        13.1366060668478        13.5717393945096        8.66614480661203      -0.151225920947661      -0.480288947892101      0.0638533857651848
14         13.145207643195        18.4273135973557        8.67960883508138       -1.74676844385011      -0.459663499559793    -0.00630089721353532
15        18.8446606860239        13.5618847534279        8.65054245985586        2.08735212378288        2.33208818645765       0.530314247893161
16        18.8793321357158           18.4435288348        8.69007636421955       -1.16641625087626         -1.709112207835      0.0679922868854102
17        12.4758533110626        17.2433774165636        8.70590747292361       -4.04169427089641       -3.80579490984832      -0.590049843555018
18        12.4376597669153        14.7797105232392        8.66528070817573        -1.9984118222228      -0.687555717587867       -0.36633989452347
19        19.5624965167191        14.7943024322989        8.67272532002687       -1.94727865244121       -1.86385854581944      -0.225306992489906
20        19.5872475723099        17.2445268402412        8.69990959728164       -4.51902030387517       -3.79876227700792      -0.709909203727225
21        20.9484969917154        14.8177970549137        8.65021196909133         -1.664300937739       -2.38217638119859      -0.104293952456616
22        20.9125482176757        17.1180450850007        8.61660685542496        6.21559792385086        6.80069431087811        1.18126934573622
23        10.9877884259101        14.7816215822416        8.62401275274902        5.28814867244958        6.12120284323579       0.686584503690372
24        11.0226096898618          17.15263964899        8.66117767671639       0.786361357262365       0.181044580845135       0.393583646425522
25        21.5412106504587        15.9464812678369        8.61133418971918        1.91578843724267        2.00540119736354      -0.149971577561653
26        10.3606898027246        15.9547492069174        8.63084922825296       0.995312317719094        1.45896512902647     -0.0910398324840416
27        21.6201322734721        18.1968583685744        8.66778622764805       -2.30127884216075       -4.47978262696828      -0.511510194358417
28        21.5848200721326        13.7693393551272        8.62806778543249       0.412572059460622       0.819697530996877       0.142533963208295
29        10.3773774528657        18.1921881894345         8.6744127021382       -0.32434456130029      -0.566972901261582     -0.0255680629144417
30        10.3874515829699        13.8100555094392        8.68008059270943       -2.96062819080673       -4.45981437115034    -0.00896729238156188
31        12.6066652360728        12.6222532139234         8.6636484138301      0.0812498070623422      0.0813452945324461      0.0076414812163301
32        12.6208155024496        19.3781953230596        8.68456200185033       0.150822093195492    0.000777348098827807      0.0169554555038237
33        19.4250107370269        12.6669609387064        8.70154720407506      -0.464528060386754      -0.905299791440082      -0.159347955449245
34        19.3509976079403        19.3347396611869        8.63429740079793        1.25962717584345         1.9576084575473      0.0293729769170448
35        15.0078762326561        12.6145502236687        8.70243965978917      -0.229112292163115       -0.67107793524399     -0.0604327049839996
36        15.0019256072643        19.4482226447231         8.7033504985823       -2.19547851475122       -3.42668921328898      -0.627187240645704
37        17.0578637550217        12.6108967407394        8.69672183100014      -0.536361814353332      -0.680538498650645   -0.000869411416202855
38        17.0499421207927        19.4425981538462        8.69566166326167        -0.1394651439363      -0.285522615548347      -0.077449203147313
39                       0                       0                5.656854                       0                       0                       0
40                       0                       0                2.828427                       0                       0                       0
41                       0                       0                       0                       0                       0                       0
42                       2                       2                5.656854    5.25655598505454e-10    7.40155902634572e-10    1.89470659626218e-10
43                       2                       2                2.828427                       0                       0                       0
44                       2                       2                       0                       0                       0                       0
45                       4                       0                5.656854                       0                       0                       0
46                       4                       0                2.828427                       0                       0                       0
47                       4                       0                       0                       0                       0                       0
48                       6                       2                5.656854    1.74228534835464e-08    3.52474777563004e-08    9.10206352504615e-09
49                       6                       2                2.828427    6.06969793882283e-10    1.27372914228109e-09    6.40585224181894e-10
50                       6                       2                       0                       0                       0                       0
51                       8                       0                5.656854    6.66607924137063e-10   -1.67724380633492e-12     4.6939776680537e-10
52                       8                       0                2.828427    3.90617946773955e-10    1.04179968967092e-11    4.94917564294355e-10
53                       8                       0                       0                       0                       0                       0
54                      10                       2                5.656854    7.52415373954336e-08    2.92567392814492e-07    7.74303286137217e-08
55                      10                       2                2.828427    2.70928271186491e-09     1.0590419772778e-08    5.43182345108581e-09
56                      10                       2                       0    9.30065244354309e-10    4.00750136842135e-09    3.11298183907197e-09
57                      12                       0                5.656854    1.33797947715229e-09   -3.98259078599593e-11    2.19236624417214e-09
58                      12                       0                2.828427    1.47594101370472e-09    1.02961280276211e-09    4.67019128923945e-09
59                      12                       0                       0                       0                       0                       0
60                      14                       2                5.656854    4.49268281432238e-08    7.11130130380682e-07    1.91609144262831e-07
61                      14                       2                2.828427    1.52490410868072e-09    2.46137591909344e-08    1.28021635014426e-08
62                      14                       2                       0    7.32149071668411e-10    1.04139936993088e-08    8.15583786728804e-09
63                      16                       0                5.656854   -1.48746937252993e-12   -1.76889698719181e-10    3.28705207968113e-09
64                      16                       0                2.828427   -1.11694723583591e-11   -2.51498897664271e-10    7.09354070942545e-09
65                      16                       0                       0                       0                       0                       0
66                      18                       2                5.656854   -4.58597173150929e-08    7.07655705719644e-07    1.90567569210767e-07
67                      18                       2                2.828427   -1.55644788157079e-09    2.44974681031352e-08    1.27378451692617e-08
68                      18                       2                       0   -7.61860013762296e-10    1.03698181945224e-08    8.11658882921598e-09
69                      20                       0                5.656854   -1.26579540752574e-09    1.06590584612175e-10    2.14849678372382e-09
70                      20                       0                2.828427   -1.67783752020347e-09   -1.82532905542555e-10    5.10422462414603e-09
71                      20                       0                       0                       0                       0                       0
72                      22                       2                5.656854   -7.40127594713124e-08    2.89592823901026e-07    7.66465244190644e-08
73                      22                       2                2.828427   -2.60452160757098e-09    1.03583368964448e-08    5.31609337817422e-09
74                      22                       2                       0   -9.22155321181568e-10    4.04468064156128e-09    3.13164106972052e-09
75                      24                       0                5.656854   -6.62867836818933e-10    1.30293950226716e-11    4.66762545711966e-10
76                      24                       0                2.828427   -3.69585692021401e-10   -3.88069479890245e-12    4.67927178052007e-10
77                      24                       0                       0                       0                       0                       0
78                      26                       2                5.656854   -1.74224404039731e-08    3.53339411695784e-08    9.09628535022162e-09
79                      26                       2                2.828427   -6.07676577104325e-10    1.28117424578145e-09    6.42996976025956e-10
80                      26                       2                       0                       0                       0                       0
81                      28                       0                5.656854                       0                       0                       0
82                      28                       0                2.828427                       0                       0                       0
83                      28                       0                       0                       0                       0                       0
84                      30                       2                5.656854   -5.50417198088588e-10    7.69804905745441e-10    1.94340130658905e-10
85                      30                       2                2.828427                       0                       0                       0
86                      30                       2                       0                       0                       0                       0
87                       0                       4                5.656854   -4.94027700068184e-12    2.97483717947162e-10    9.10692194264595e-11
88                       0                       4                2.828427                       0                       0                       0
89                       0                       4                       0                       0                       0                       0
90                       2                       6                5.656854    9.79265529946487e-08    9.00809052874722e-08    3.34608283710799e-08
91                       2                       6                2.828427    3.66832330878484e-09    3.33472646836943e-09     2.4025630776399e-09
92                       2                       6                       0    1.01708580755258e-09     9.4706914684039e-10    1.05257081867187e-09
93                       4                       4                5.656854    1.09521885407627e-08    1.49684987168543e-08    4.56001890551648e-09
94                       4                       4                2.828427    1.32709035577902e-08    1.83508269794417e-08    1.07923179100092e-08
95                       4                       4                       0    1.40927103368263e-10    1.94789361172868e-10    1.77225945185898e-10
96                       6                       6                5.656854    3.23279627247106e-06    4.79103926946653e-06    1.82571719180219e-06
97                       6                       6                2.828427    8.94023375681216e-08    1.30812887857839e-07    9.59912811096614e-08
98                       6                       6                       0    3.47595949660961e-08    5.04007711202171e-08    5.47556126500071e-08
99                       8                       4                5.656854    1.26044102675931e-07     2.9660910440563e-07    9.29272932870633e-08
100                       8                       4                2.828427    1.27962852474741e-07    2.99253982371633e-07    1.80808319322762e-07
101                       8                       4                       0    1.74437829226397e-09    4.12549325645673e-09    3.69323026420716e-09
102                      10                       6                5.656854    2.10450440477638e-05     6.3058779365648e-05    2.53491325044835e-05
103                      10                       6                2.828427    4.37203779761902e-07    1.29065127152721e-06     9.8992411406098e-07
104                      10                       6                       0    1.32669993315885e-07    3.83957531097735e-07    4.29980819155467e-07
105                      12                       4                5.656854    2.48039432148277e-07    1.51588058235302e-06    4.90993064678338e-07
106                      12                       4                2.828427    2.23509190298518e-07    1.32635117411178e-06    8.24415396563056e-07
107                      12                       4                       0     2.8155257112483e-09     1.6271592205624e-08    1.48715412149223e-08
108                      14                       6                5.656854    1.09912362773271e-05    0.000175770926925664    7.31259189363267e-05
109                      14                       6                2.828427     2.2859186845982e-07    3.19098728126355e-06    2.52238809557029e-06
110                      14                       6                       0    6.97430987939166e-08     8.5417793347803e-07    9.81190104017794e-07
111                      16                       4                5.656854    -2.3961075031498e-09    2.24285577457587e-06    7.34904482746328e-07
112                      16                       4                2.828427   -2.13544778256134e-09    1.92241642094904e-06     1.2066792655773e-06
113                      16                       4                       0   -2.36112196702308e-11     2.2901841862114e-08    2.11550108854191e-08
114                      18                       6                5.656854   -1.13270349100522e-05    0.000174630074510934     7.2647278619712e-05
115                      18                       6                2.828427   -2.33142377963263e-07     3.1747921844716e-06    2.50785605791925e-06
116                      18                       6                       0   -7.06065341645622e-08    8.51398119215903e-07    9.77361633297262e-07
117                      20                       4                5.656854   -2.45960834905258e-07    1.50195844970989e-06    4.86350813035006e-07
118                      20                       4                2.828427   -2.21712304055709e-07    1.31696845352818e-06    8.17678617896808e-07
119                      20                       4                       0   -2.76041535691629e-09    1.60248433062567e-08    1.46641373991914e-08
120                      22                       6                5.656854   -2.07426678709889e-05    6.28906063418385e-05    2.52237662297946e-05
121                      22                       6                2.828427   -4.32376578149843e-07    1.28971441618145e-06    9.87365272558737e-07
122                      22                       6                       0   -1.31666227433782e-07    3.84018475161538e-07    4.29545517914307e-07
123                      24                       4                5.656854   -1.25493997375989e-07    2.97133584021233e-07    9.28585762502193e-08
124                      24                       4                2.828427   -1.27459394981946e-07    3.00030720937814e-07    1.81020919711595e-07
125                      24                       4                       0   -1.73924642167445e-09    4.13749887267027e-09    3.70034081269217e-09
126                      26                       6                5.656854   -3.25563441972016e-06    4.81503784544995e-06    1.82925007028156e-06
127                      26                       6                2.828427   -9.00511995887961e-08     1.3164331380278e-07    9.66091416477704e-08
128                      26                       6                       0    -3.4979974984132e-08    5.06709187238279e-08    5.50946119631667e-08
129                      28                       4                5.656854   -1.09960416096122e-08    1.49817067348075e-08    4.54684814986901e-09
130                      28                       4                2.828427   -1.33482742063732e-08    1.84168079803382e-08    1.08256268190516e-08
131                      28                       4                       0   -1.46947639894532e-10    2.04030564141669e-10    1.84904041105266e-10
132                      30                       6                5.656854   -9.73820712143454e-08     8.8877363673944e-08    3.29180402464335e-08
133                      30                       6                2.828427   -3.66372638272639e-09    3.30658173608472e-09    2.38594678533645e-09
134                      30                       6                       0   -1.08183221024709e-09    9.98804736055963e-10    1.10920048323218e-09
135                       0                       8                5.656854    2.72368975106164e-10    1.27166247875224e-08    6.02711313718798e-09
136                       0                       8                2.828427    2.34624027620009e-10    1.45210162696793e-08    1.35522206628533e-08
137                       0                       8                       0   -5.86936344659195e-12    1.45185431707575e-10    2.17016365336622e-10
138                       2                      10                5.656854    3.22842120588914e-06    1.64903534058869e-06    1.11703041090901e-06
139                       2                      10                2.828427    9.16565363900387e-08     4.7374863236516e-08    6.11742263483739e-08
140                       2                      10                       0    3.72122266547058e-08    1.93238824910444e-08    3.64549966674273e-08
141                       4                       8                5.656854    1.01285626919318e-06    9.03303425801115e-07    4.41787578872401e-07
142                       4                       8                2.828427    8.47460765895585e-07     7.5317381534671e-07    7.06372170618701e-07
143                       4                       8                       0    9.93980167605185e-09    8.79469648052473e-09    1.21133127485135e-08
144                       6                      10                5.656854     0.00027708369529331    0.000238058286343811    0.000170998924758522
145                       6                      10                2.828427    3.97820462177245e-06    3.39417333085156e-06    4.58990112609373e-06
146                       6                      10                       0    8.80416132367523e-07    7.44531902170821e-07    1.44748807908459e-06
147                       8                       8                5.656854    2.29242341652964e-05    3.86385912697263e-05    1.98648490787972e-05
148                       8                       8                2.828427    1.19901060645567e-05    1.95810654038932e-05    1.91800300274537e-05
149                       8                       8                       0    9.11768627980687e-08    1.44499698098855e-07    2.05744854865396e-07
150                      10                      10                5.656854     0.00281428378391553     0.00568448958155424     0.00448996711292569
151                      10                      10                2.828427    2.38522401672964e-05    4.62224137641154e-05    6.74766572178689e-05
152                      10                      10                       0    3.45460136282286e-06    6.32372049683313e-06    1.30464135669026e-05
153                      12                       8                5.656854    5.95646359539106e-05    0.000282009826107282     0.00015814263927371
154                      12                       8                2.828427    2.26587936362543e-05    0.000102104893105985    0.000106812344215741
155                      12                       8                       0    1.37239483842688e-07    5.80922395703579e-07    8.68918887694618e-07
156                      14                      10                5.656854    0.000904383821227906       0.014838598312746      0.0129490780643225
157                      14                      10                2.828427    8.67452324906406e-06    0.000108652832155645    0.000172052993119428
158                      14                      10                       0    1.42717135556415e-06    1.31219794524328e-05    2.86782530945475e-05
159                      16                       8                5.656854   -4.58872114217152e-07    0.000404853014750989    0.000232479130489488
160                      16                       8                2.828427   -1.92792819640837e-07    0.000142717614169733    0.000152523026515665
161                      16                       8                       0   -9.66754871296843e-10    7.94783162345301e-07    1.21140885213469e-06
162                      18                      10                5.656854   -0.000925558705503497      0.0147993410367463      0.0129087713641656
163                      18                      10                2.828427   -8.78571125819679e-06    0.000108245021684351    0.000171268370226862
164                      18                      10                       0   -1.43521933253614e-06    1.30837020948051e-05    2.85866904357678e-05
165                      20                       8                5.656854    -5.8556442125624e-05    0.000279305947737456    0.000156215084461999
166                      20                       8                2.828427   -2.23673083933187e-05    0.000101669274126958    0.000106120606030683
167                      20                       8                       0   -1.36006678293223e-07    5.79659660792733e-07    8.66017462596354e-07
168                      22                      10                5.656854    -0.00279877485059301     0.00570891132497897     0.00450211168020921
169                      22                      10                2.828427   -2.37660387802943e-05    4.64460300954318e-05    6.78163008847553e-05
170                      22                      10                       0   -3.44621521629077e-06    6.33380286151524e-06    1.30724138584843e-05
171                      24                       8                5.656854   -2.31078062895467e-05    3.90298973504402e-05     2.0021382191324e-05
172                      24                       8                2.828427   -1.20531372540154e-05    1.97287102935235e-05    1.93349287834892e-05
173                      24                       8                       0   -9.13396422983717e-08    1.44945603298924e-07    2.06642419326358e-07
174                      26                      10                5.656854   -0.000277852197183225    0.000235194861609125    0.000169431870121039
175                      26                      10                2.828427   -3.99539059451136e-06    3.36759484145697e-06    4.58257725572597e-06
176                      26                      10                       0   -8.82611990749689e-07    7.39582805453534e-07    1.44521084138493e-06
177                      28                       8                5.656854   -1.01065851052787e-06    8.92291672109269e-07    4.35905193087965e-07
178                      28                       8                2.828427   -8.49362096049625e-07    7.47996982214209e-07    7.03781710166273e-07
179                      28                       8                       0   -9.96166143150336e-09    8.74405956901834e-09    1.20910531831261e-08
180                      30                      10                5.656854   -3.14053924804271e-06    1.58100800990918e-06    1.07389725228147e-06
181                      30                      10                2.828427   -8.99945604209941e-08    4.58739278455956e-08    5.96324233179217e-08
182                      30                      10                       0   -3.67124603560614e-08    1.88151050416842e-08    3.57562793693723e-08
183                       0                      12                5.656854    5.82880474742776e-09    6.07330755642128e-08    6.37366393210112e-08
184                       0                      12                2.828427    5.00559466661498e-09     6.8469169670789e-08    1.36626070401073e-07
185                       0                      12                       0     6.0888518720917e-11    1.02775384588263e-09    2.92551867961445e-09
186                       2                      14                5.656854    1.92144204671819e-05    2.77230370875502e-06    6.64639011954263e-06
187                       2                      14                2.828427    4.65174182542324e-07    7.09385948549626e-08    3.11491954638326e-07
188                       2                      14                       0     1.6135534829428e-07    2.56948040948969e-08    1.57924323282709e-07
189                       4                      12                5.656854    2.35342784168263e-05    9.05824324132572e-06    1.04973890711787e-05
190                       4                      12                2.828427    1.30461619744869e-05    5.20956567699679e-06    1.11110685542751e-05
191                       4                      12                       0    1.03792185101069e-07    4.27234534021328e-08    1.28580987554132e-07
192                       6                      14                5.656854     0.00319575084955728    0.000672628337319538     0.00201203228756942
193                       6                      14                2.828427    2.98163533405658e-05     7.0350638629605e-06    3.53157304551416e-05
194                       6                      14                       0    4.54250907903157e-06     1.1533523449858e-06    7.66763276957305e-06
195                       8                      12                5.656854     0.00131918584678053     0.00104693727454201     0.00134904860401251
196                       8                      12                2.828427    0.000286632683690244    0.000224888407534832    0.000520243439996444
197                       8                      12                       0    1.13308480132446e-06    8.74032221254769e-07    2.79345603760218e-06
198                      10                      14                5.656854     -0.0239520004864713     -0.0136050720630353      -0.146829706148576
199                      10                      14                2.828427    0.000180511093672641    0.000110663765413897     0.00063953550737865
200                      10                      14                       0    1.70197319820259e-05     1.0099297413119e-05     7.3663857573961e-05
201                      12                      12                5.656854      0.0017802422987914     0.00559417008000192     0.00788089216548386