ITEM: TIMESTEP
0
ITEM: NUMBER OF ATOMS
422
ITEM: BOX BOUNDS pp pp pp
0.0000000000000000e+00 3.2000000000000000e+01
0.0000000000000000e+00 3.2000000000000000e+01
0.0000000000000000e+00 3.2000000000000000e+01
ITEM: ATOMS id xu yu zu fx fy fz
1        13.1459321938386        14.8835208156773                 8.65685     -0.0255315005169672      0.0264006545248769      0.0697766162862378
2        18.8274848400711        14.8892262416344                 8.65685      0.0252897594547978      0.0271542929420882      0.0716078662237469
3         17.402344993917         14.887795112765                 8.65685     -0.0225001899143629      0.0333740017783863      0.0913640806657507
4         14.571072038949        14.8849519429358                 8.65685      0.0219922232669945      0.0340326841727741      0.0937974623891164
5        16.7010751677692        13.6497248501637                 8.65685     -0.0310357350109948    -0.00878675061486647      0.0561508488864839
6        15.2748269908674        13.6482926087119                 8.65685      0.0318038340419659    -0.00914949959480123      0.0587431651371107
7        15.2723418650276        16.1230222053877                 8.65685     0.00473225197750927     -0.0022744173419018     0.00105758067387763
8        16.6985900414216        16.1244544465825                 8.65685    -0.00456723225139131    -0.00218878325550187    0.000642597169457728
9        14.5177569207574        12.4484462411751                 8.65685     0.00789295801812375     -0.0193320956048743      0.0291747255014408
10        17.4605534827313        12.4514014038861                 8.65685    -0.00813721458565625     -0.0191715786438136      0.0287774500319982
11        14.5128635507729         17.321345651893                 8.65685      0.0251668225123644     -0.0333152947977899       0.123721120338884
12        17.4556601106552        17.3243008141789                 8.65685     -0.0262265740384147     -0.0325646477417449       0.121171675361336
13        13.1273112602358        12.4624445878976                 8.65685    -0.00976835069969629     -0.0145413153689431      0.0190243206069887
14        13.1224488081137        17.3045547622743                 8.65685     -0.0308200723687129      -0.024455858811131      0.0843950610695121
15         18.850968226168        12.4681922935721                 8.65685     0.00986426393726569     -0.0150640625056657      0.0200291365281481
16        18.8461057714963        17.3103024705805                 8.65685      0.0309145024312882     -0.0252207445035584      0.0883246692878691
17         12.426795838139        16.0943199436399                 8.65685    -0.00274763700309328   -0.000998264973869487    -0.00258939972203368
18        12.4292290587396        13.6712798150634                 8.65685     -0.0205164862769901    -0.00540809717723279      0.0321868054341505
19        19.5466211966922        13.6784271122721                 8.65685      0.0216451688344794    -0.00551113920341657      0.0340712606265647
20        19.5441879750283        16.1014672429596                 8.65685     0.00295265926795715    -0.00113591451902144    -0.00231353734261453
21        20.9551350226241        13.7244350858224                 8.65685      -0.038511230801724     -0.0102367864599572      0.0899940273368581
22        20.9527913622507        16.0582882295758                 8.65685    -0.00559749566089514      -0.001526191412319     0.00436332352897041
23        11.0206256731611        13.7144588294926                 8.65685      0.0387325658336016     -0.0109042192981489       0.092931783024594
24        11.0182820131454        16.0483119722736                 8.65685     0.00567301004032829    -0.00131577931065304     0.00484106049442683
25        21.5867264607395        14.8919970781177                 8.65685    -0.00708801327846133      0.0154045342768106      0.0353057846381995
26        10.3866905744716        14.8807499786644                 8.65685     0.00681140455157866       0.015623567991665      0.0366365726543978
27         21.609196045824        17.0859221409264                 8.65685    -0.00660570922541128     -0.0155629210054264      0.0346160920310093
28        21.6136022867001        12.6981215696947                 8.65685     -0.0037414421869552     -0.0123924330416209      0.0143282038490512
29        10.3598147507275        17.0746254872963                 8.65685     0.00608972213489627     -0.0157799460972294      0.0346942413347387
30        10.3642209902605        12.6868249167297                 8.65685     0.00349915866273703     -0.0123695601029114      0.0141187270698102
31        12.5998668222426        11.5154548000933                 8.65685   -0.000351540283843573    0.000428311894208736    -0.00956830913852902
32        12.5931035005993        18.2504833212092                 8.65685    -0.00296084710830392    0.000464449990093188    -0.00473428082577741
33        19.3803135329519        11.5222637346313                 8.65685    0.000355637452450487    0.000451360214259378    -0.00953980485595281
34        19.3735502071424         18.257292260389                 8.65685     0.00310010912802583    0.000514158357691786    -0.00433281583112545
35        14.9622865728669        11.4689605638796                 8.65685    0.000741408683787758     0.00134823388790552    -0.00798338404872954
36         14.955425108682        18.3017221461408                 8.65685      0.0042842246150314     0.00129036033272982     0.00208239638084399
37        17.0179919240215        11.4710249097393                 8.65685   -0.000727268698847328      0.0012993002175204    -0.00807365650631641
38         17.011130457531        18.3037864905846                 8.65685    -0.00423482920880716     0.00123487640874027     0.00147975876581431
39                       0                       0                5.656854                       0                       0                       0
40                       0                       0                2.828427                       0                       0                       0
41                       0                       0                       0                       0                       0                       0
42                       2                       2                5.656854    2.67323610469921e-09    3.21660794287442e-09    9.19204620630611e-10
43                       2                       2                2.828427    9.66293074548772e-11    1.23461645955741e-10    6.73340026166069e-11
44                       2                       2                       0                       0                       0                       0
45                       4                       0                5.656854    1.72515590580532e-10    3.03608480361208e-10    7.37760515513014e-11
46                       4                       0                2.828427                       0                       0                       0
47                       4                       0                       0                       0                       0                       0
48                       6                       2                5.656854    7.79561615433879e-08    1.46009703077492e-07    4.14398269706798e-08
49                       6                       2                2.828427    3.00483411191489e-09    5.60252795201917e-09    3.07974181600282e-09
50                       6                       2                       0    8.67992974581058e-10     1.7423792539842e-09    1.46611039782265e-09
51                       8                       0                5.656854    2.18810845248981e-09    6.05249868804049e-09    1.51190703845723e-09
52                       8                       0                2.828427    2.24326306987144e-09    6.45708523441851e-09     3.1063102860474e-09
53                       8                       0                       0                       0                       0                       0
54                      10                       2                5.656854    3.75743651401424e-07    1.36576128280742e-06    3.98506920444703e-07
55                      10                       2                2.828427    1.24567048986727e-08    4.46207141625468e-08    2.51508259909109e-08
56                      10                       2                       0    5.31966909873166e-09    1.98988370572573e-08    1.66840056152519e-08
57                      12                       0                5.656854    3.94846381547809e-09    2.59091097214136e-08    6.64638463283998e-09
58                      12                       0                2.828427    4.44804133546198e-09    3.17320375050266e-08    1.56133323435794e-08
59                      12                       0                       0    2.80524432237545e-11    2.08058371053451e-10    1.56664237728721e-10
60                      14                       2                5.656854    2.30204990311313e-07    3.48864471402273e-06     1.0361036204192e-06
61                      14                       2                2.828427    7.52627536446388e-09    1.06881994121175e-07    6.12400198592563e-08
62                      14                       2                       0    3.22156864806685e-09    4.64203841602596e-08    3.94093791656986e-08
63                      16                       0                5.656854   -3.74526682240867e-11    3.84272531384544e-08    9.94307919893887e-09
64                      16                       0                2.828427   -4.42332588638196e-11    4.56944572666289e-08     2.2855154968411e-08
65                      16                       0                       0    -3.6300189823901e-13    3.89440254864041e-10    2.93488602514082e-10
66                      18                       2                5.656854   -2.35954294523459e-07    3.46840631396494e-06    1.02982122777118e-06
67                      18                       2                2.828427   -7.70391346493745e-09    1.06323743838194e-07    6.09050999791181e-08
68                      18                       2                       0    -3.3011947238939e-09    4.62093258033901e-08    3.92205584012822e-08
69                      20                       0                5.656854   -3.95488063520976e-09    2.56216006921382e-08    6.57252799634289e-09
70                      20                       0                2.828427   -4.46230219711229e-09    3.14038343380501e-08    1.54522565812688e-08
71                      20                       0                       0    -2.8154648657342e-11    2.06194274337085e-10    1.55194629669481e-10
72                      22                       2                5.656854   -3.72001525339392e-07    1.34236873114963e-06    3.91446445982117e-07
73                      22                       2                2.828427   -1.23512317930721e-08    4.39277677739611e-08    2.47460449331925e-08
74                      22                       2                       0   -5.28594239918458e-09    1.96273227663591e-08    1.64465990869438e-08
75                      24                       0                5.656854   -2.15388078683484e-09    5.92631292952703e-09    1.48012716900838e-09
76                      24                       0                2.828427   -2.21068948765561e-09    6.33266748020951e-09    3.04468420830262e-09
77                      24                       0                       0                       0                       0                       0
78                      26                       2                5.656854   -7.61652045683498e-08    1.42153592614809e-07    4.03153055223284e-08
79                      26                       2                2.828427   -2.94175367047275e-09    5.46597765695853e-09    3.00247519268613e-09
80                      26                       2                       0   -8.52126719054942e-10    1.70453215222772e-09    1.43299316158447e-09
81                      28                       0                5.656854   -1.68050934436993e-10    2.94981199812499e-10     7.1627587940425e-11
82                      28                       0                2.828427                       0                       0                       0
83                      28                       0                       0                       0                       0                       0
84                      30                       2                5.656854   -2.59121903867257e-09    3.11250568469528e-09    8.88628102999481e-10
85                      30                       2                2.828427   -9.37861932943375e-11    1.19638506510434e-10    6.51800242209211e-11
86                      30                       2                       0                       0                       0                       0
87                       0                       4                5.656854    1.73228539234176e-10    1.03541237346948e-09    3.56028655585401e-10
88                       0                       4                2.828427    2.34466885598398e-11    1.19831202823247e-09     8.0349383169832e-10
89                       0                       4                       0                       0                       0                       0
90                       2                       6                5.656854    2.99556024627059e-07    2.41298937517348e-07      1.026418134772e-07
91                       2                       6                2.828427    1.02885289553637e-08    8.22341583919727e-09    6.78084916089391e-09
92                       2                       6                       0    4.56437303086059e-09    3.70990115755689e-09    4.55262621857154e-09
93                       4                       4                5.656854    4.24525268279834e-08    5.27820243216548e-08     1.7918796260455e-08
94                       4                       4                2.828427    4.77921485026996e-08    5.87259485512915e-08    3.88033452831547e-08
95                       4                       4                       0    5.71110746822238e-10    7.29653642579866e-10    7.21759786143422e-10
96                       6                       6                5.656854    1.24655269345618e-05    1.64920029996857e-05    7.23989757947792e-06
97                       6                       6                2.828427    2.92737811636325e-07    3.80793299671794e-07    3.21557003927203e-07
98                       6                       6                       0    9.91506396245858e-08    1.27245339921632e-07    1.57697609133602e-07
99                       8                       4                5.656854    5.69206863462018e-07    1.23633232304606e-06    4.34638677389833e-07
100                       8                       4                2.828427    5.00713640322531e-07    1.07200810992598e-06    7.26170199830248e-07
101                       8                       4                       0    6.00337280761314e-09    1.27086617075438e-08    1.27329004642786e-08
102                      10                       6                5.656854    9.38266120714556e-05     0.00025575499691333    0.000119662873766042
103                      10                       6                2.828427    1.55047163371204e-06    4.13564253410073e-06    3.67709739603768e-06
104                      10                       6                       0    3.85150388636044e-07    9.96980857965925e-07    1.28577321589351e-06
105                      12                       4                5.656854    1.23100132633016e-06    6.98908215613307e-06    2.56112977827386e-06
106                      12                       4                2.828427    9.21486715092835e-07    5.03929287268971e-06    3.53724945868894e-06
107                      12                       4                       0    9.58183855970343e-09    5.08835591708274e-08    5.22850012885857e-08
108                      14                       6                5.656854    4.88383887513214e-05    0.000754330875554632    0.000368999905356192
109                      14                       6                2.828427    8.07083291511648e-07    1.04697139619792e-05    9.68086909437578e-06
110                      14                       6                       0    2.01618616411698e-07    2.22942879975666e-06    2.97061463579526e-06
111                      16                       4                5.656854   -1.12301063249524e-08    1.04861868189612e-05    3.89071353141375e-06
112                      16                       4                2.828427   -7.97606606742552e-09     7.3722024653932e-06    5.23773721921045e-06
113                      16                       4                       0   -7.96693110819147e-11    7.27102819870661e-08    7.55236664773035e-08
114                      18                       6                5.656854    -5.0396922900546e-05     0.00074990444731358    0.000366632497019888
115                      18                       6                2.828427   -8.28903176696986e-07    1.04189083839886e-05    9.62920043956354e-06
116                      18                       6                       0   -2.06326367724475e-07    2.22047803153178e-06      2.957434023982e-06
117                      20                       4                5.656854   -1.23174932251749e-06    6.90327505815139e-06    2.52805432586416e-06
118                      20                       4                2.828427   -9.23077532835982e-07    4.98567269070218e-06    3.49752656200426e-06
119                      20                       4                       0   -9.61069063687479e-09    5.04252426391598e-08    5.17852893330407e-08
120                      22                       6                5.656854   -9.26579035026711e-05    0.000250771225028227    0.000117189597641319
121                      22                       6                2.828427   -1.53610908001585e-06    4.06873784461903e-06    3.61372685894624e-06
122                      22                       6                       0   -3.82616037011083e-07    9.83714673310169e-07    1.26745441844271e-06
123                      24                       4                5.656854   -5.58381919926851e-07    1.20693835422068e-06    4.23916487164365e-07
124                      24                       4                2.828427   -4.92488719269981e-07    1.04940011789705e-06    7.10240660874211e-07
125                      24                       4                       0   -5.92175421177318e-09    1.24778735531633e-08    1.24911963274474e-08
126                      26                       6                5.656854   -1.21271990900487e-05    1.59921582743898e-05    7.01120129020723e-06
127                      26                       6                2.828427   -2.85927638501576e-07    3.70762094946917e-07    3.12702511902718e-07
128                      26                       6                       0   -9.72310718516429e-08    1.24397602468173e-07    1.53993557137662e-07
129                      28                       4                5.656854   -4.12069594790716e-08    5.11100523287609e-08    1.73338080027843e-08
130                      28                       4                2.828427   -4.65197696901883e-08    5.70280704207348e-08    3.76443459194724e-08
131                      28                       4                       0   -5.57733614961852e-10    7.10948245651042e-10    7.02491816542959e-10
132                      30                       6                5.656854   -2.89286564344557e-07    2.32833330032784e-07    9.89157285788071e-08
133                      30                       6                2.828427   -9.97025544285275e-09    7.95778851925903e-09     6.5534977749044e-09
134                      30                       6                       0   -4.43976200161726e-09    3.60371277985556e-09    4.41646059742846e-09
135                       0                       8                5.656854    8.92507885499206e-10    2.39022163919851e-08    1.35348557470362e-08
136                       0                       8                2.828427    9.77962707447139e-10    2.88326359998723e-08    3.12296105647916e-08
137                       0                       8                       0    7.19779424476485e-12    2.25040139247521e-10    4.15170221839475e-10
138                       2                      10                5.656854    6.41422409362955e-06    2.55336601442205e-06    2.22334346676897e-06
139                       2                      10                2.828427    1.70462437898035e-07    6.94194520050898e-08    1.14123754172838e-07
140                       2                      10                       0    6.55588306785015e-08    2.71087896349024e-08     6.4099121646184e-08
141                       4                       8                5.656854    2.93456781314092e-06     2.1949078313354e-06    1.29353625004618e-06
142                       4                       8                2.828427    2.14837215219912e-06    1.60838898841187e-06     1.8086671047828e-06
143                       4                       8                       0    2.21362892982621e-08    1.65955815596169e-08    2.71764420986684e-08
144                       6                      10                5.656854    0.000722024496376181    0.000477466386941076    0.000452526206195217
145                       6                      10                2.828427    8.60624771205555e-06    5.75153204990449e-06     1.0069438993077e-05
146                       6                      10                       0    1.64001979189059e-06     1.1019557264697e-06    2.72489400141839e-06
147                       8                       8                5.656854    8.53607178150323e-05    0.000126191815096988    7.85620246394144e-05
148                       8                       8                2.828427    3.46934082748805e-05    4.90269526042271e-05    5.78424454325123e-05
149                       8                       8                       0    2.16193918440988e-07     2.9401228398094e-07    5.00378404424052e-07
150                      10                      10                5.656854     0.00713377600974538      0.0109343978597192      0.0112589248024037
151                      10                      10                2.828427    5.30682544664631e-05    8.45511968053982e-05     0.00016100433227092
152                      10                      10                       0    6.47816040187737e-06    9.62335603861587e-06    2.54195301973669e-05
153                      12                       8                5.656854    0.000238976047849693    0.000990167952517564    0.000690736743091308
154                      12                       8                2.828427    6.63629735521127e-05    0.000261842464952642    0.000335176537364929
155                      12                       8                       0    3.22970069283463e-07    1.18831258713945e-06    2.14609995254934e-06
156                      14                      10                5.656854     0.00204003200104958       0.015655902668588      0.0160635382575904
157                      14                      10                2.828427    1.76354763302474e-05    0.000187459583706265    0.000398936156830804
158                      14                      10                       0    2.55573383306688e-06    1.93391614699023e-05    5.49986261867862e-05
159                      16                       8                5.656854   -1.49988422270048e-06     0.00140904188755564     0.00101496316564805
160                      16                       8                2.828427   -4.26663937420358e-07    0.000361843552814975    0.000477040445218166
161                      16                       8                       0    -2.0744194779469e-09    1.60965981534718e-06    2.98064595112852e-06
162                      18                      10                5.656854     -0.0020970090333842      0.0156930738134812      0.0161238763806571
163                      18                      10                2.828427   -1.82481229904031e-05    0.000187012931277983    0.000397525584466261
164                      18                      10                       0   -2.61730236595015e-06    1.92970527620463e-05    5.48285520246533e-05
165                      20                       8                5.656854    -0.00023920704229057    0.000977965403529369    0.000681203832178177
166                      20                       8                2.828427   -6.65628383001261e-05    0.000259379525933152    0.000331600309353141
167                      20                       8                       0   -3.24272520527784e-07    1.17946452902218e-06    2.12784291172275e-06
168                      22                      10                5.656854     -0.0070736411051442      0.0108073272568027      0.0111038696780322
169                      22                      10                2.828427   -5.27096835634272e-05    8.34354370062911e-05    0.000158495983055885
170                      22                      10                       0   -6.44998553802937e-06    9.52274210065922e-06    2.51055315688734e-05
171                      24                       8                5.656854   -8.34623331456253e-05    0.000122795000396604    7.63008713128917e-05
172                      24                       8                2.828427   -3.40989561741751e-05     4.7974182009758e-05    5.65060494337144e-05
173                      24                       8                       0   -2.13346699840936e-07    2.88924249608862e-07    4.91013126220651e-07
174                      26                      10                5.656854   -0.000700190004242703    0.000462092657381648    0.000436728510710604
175                      26                      10                2.828427   -8.40145749766713e-06    5.60207998561595e-06    9.78502280323119e-06
176                      26                      10                       0   -1.60946242198186e-06    1.07885385242093e-06    2.66262805504524e-06
177                      28                       8                5.656854   -2.83717221393845e-06    2.11849671509029e-06    1.24624410836689e-06
178                      28                       8                2.828427   -2.08698966998601e-06    1.55966720759312e-06    1.75102285925754e-06
179                      28                       8                       0   -2.16054609341932e-08    1.61676049048629e-08    2.64367960220941e-08
180                      30                      10                5.656854   -6.18228690733536e-06    2.46106041808675e-06    2.13843647526246e-06
181                      30                      10                2.828427   -1.64984355821355e-07    6.71779424603239e-08    1.10232819729705e-07
182                      30                      10                       0   -6.37643836166936e-08      2.634133483961e-08    6.21765327849658e-08
183                       0                      12                5.656854    6.19952705549103e-09    6.15070408931204e-08    9.25255960566964e-08
184                       0                      12                2.828427    6.06165036385237e-09    6.76758223093231e-08     1.9229081576886e-07
185                       0                      12                       0    7.41097113721136e-11    9.97083032866206e-10    3.99729007750995e-09
186                       2                      14                5.656854    2.24058245162564e-05    1.38822619847029e-06    7.75487134497788e-06
187                       2                      14                2.828427     5.3717049044077e-07    3.56783932778974e-08    3.59721006132239e-07
188                       2                      14                       0    1.84155967152861e-07    1.29296917620035e-08    1.80175941191277e-07
189                       4                      12                5.656854    3.80959511587626e-05    9.73527969233988e-06    1.70162808068677e-05
190                       4                      12                2.828427    1.98420624067437e-05    5.42145927208805e-06    1.69326018034565e-05
191                       4                      12                       0    1.48838849117986e-07    4.29125277696491e-08    1.84662375167467e-07
192                       6                      14                5.656854     0.00383686004188318    0.000321772456914475     0.00241261658498682
193                       6                      14                2.828427    3.53222360189244e-05    3.52633182823596e-06    4.18022468466402e-05
194                       6                      14                       0    5.28207383158807e-06    5.86892077333591e-07    8.91052504302902e-06
195                       8                      12                5.656854      0.0023900046922379     0.00122969724278579     0.00245505880872163
196                       8                      12                2.828427      0.0004717045324492    0.000249806097706075    0.000868799867679509
197                       8                      12                       0    1.67947687276425e-06    9.06945146543809e-07    4.18533344602857e-06
198                      10                      14                5.656854     -0.0312861907920847      0.0093975833265052      -0.165077934751385
199                      10                      14                2.828427     0.00021553932222347    5.53353578508393e-05    0.000770107786775642
200                      10                      14                       0    1.98324978491942e-05    5.15308890252578e-06    8.64633040020065e-05
201                      12                      12                5.656854     0.00135013256523736     0.00404924250869017     0.00580053347365716