ITEM: TIMESTEP
0
ITEM: NUMBER OF ATOMS
422
ITEM: BOX BOUNDS pp pp pp
0.0000000000000000e+00 3.2000000000000000e+01
0.0000000000000000e+00 3.2000000000000000e+01
0.0000000000000000e+00 3.2000000000000000e+01
ITEM: ATOMS id xu yu zu fx fy fz
1        13.1182513572071        15.9558399790458        8.62916916336854     -0.0065052290331217     0.00156205796795909      0.0103528368654069
2        18.8087574538566        15.9704988554199        8.63812261378551     0.00632722073545302     0.00109705167607041      0.0108024383056084
3        17.4157151549627        16.0011652738107        8.67022016104579    -0.00514513083742112   -4.74544783808203e-05       0.011435046424977
4        14.5691972532469        15.9830771572337         8.6549752142979     0.00534421639785967    0.000733721662888073      0.0134798584019649
5        16.7004412429718        14.7490909253663        8.65621607520256      -0.023594683554412      0.0141962489272567       0.039641456691727
6        15.2981181060297        14.7715837238742        8.68014111516232      0.0212939624703907      0.0132005858750251      0.0340462537849092
7        15.2713740316274        17.2220543719875         8.6558821665998      0.0236536300180968     -0.0149922748060993      0.0405547724231884
8        16.6976047595375        17.2234691646984         8.6558647181159     -0.0229343587558087     -0.0142752995959625      0.0381437569195468
9        14.5076989415627        13.5383882619805        8.64679202080533      0.0302948982099237     -0.0275399301449592       0.153706872707008
10        17.5039798658523         13.594827787007        8.70027638312095     -0.0253292035034049     -0.0206816346495428        0.13044657909332
11        14.5110177721483        18.4194998732684        8.65500422137535      0.0302392616861678      0.0248147091663514       0.152528189148158
12        17.4235538066425        18.3921945101662        8.62474369598727     -0.0368891121574639      0.0250819962778442       0.165312833251817
13        13.1309171848451         13.566050512507        8.66045592460939     -0.0366255289335189       -0.01830236132712       0.104219215068175
14        13.1137929978781        18.3958989520388        8.64819418976447     -0.0390356970152841      0.0174581310015415       0.109557142071225
15        18.8489276580285        13.5661517254325        8.65480943186043      0.0373192281514642     -0.0190811605776321       0.109280271645623
16        18.8959068330309        18.4601035321151        8.70665106153461       0.030616850057888      0.0157415251951247      0.0818532069153418
17        12.4668215058228        17.2343456113238        8.69687566768385     -0.0143076377745627    -0.00848161090951576      0.0171621035251332
18        12.4327323756851         14.774783132009        8.66035331694552     -0.0149814668929106     0.00910566912550168      0.0201587922046944
19        19.5497465821572         14.781552497737        8.65997538546496      0.0154583620089893     0.00939635399450486      0.0209081939921465
20        19.5076310388936        17.1649103068249        8.62029306386533      0.0181539497258472     -0.0115988007718368      0.0275128595373977
21         20.939373284525        14.8086733477233         8.6410882619009     -0.0280925120509081       0.021575031576197      0.0611153682096869
22        20.9805000335436        17.1859969008686        8.68455867129286     -0.0244095834857236     -0.0195852527760346      0.0531854665334474
23        11.0390192221829        14.8328523785143        8.67524354902177      0.0245523668078002      0.0197930081099213      0.0525166066935571
24        11.0607052017468        17.1907351608751        8.69927318860142      0.0229205012316615     -0.0176131062386502      0.0465805814596228
25        21.5840594647252        15.9893300821034         8.6541830039857    -0.00155435800800529    0.000205808668767669    -0.00202498392562943
26        10.3831147002871        15.9771741044799        8.65327412581551     0.00146805845308582    0.000449310193035726    -0.00178117517388494
27        21.6478751146771        18.2246012097795        8.69552906885311    -0.00875157004368897     0.00557586894538068      0.0581128824353147
28        21.6050117826237        13.7895310656183        8.64825949592356     -0.0115459280376154    -0.00614285841891675      0.0697067003975432
29        10.3279386212808        18.1427493578496        8.62497387055329      0.0109640076763153      0.0047671702848813      0.0812320531560728
30        10.3794792851639        13.8020832116332        8.67210829490343      0.0102509688451115    -0.00533828743458997      0.0638626315513227
31        12.5561325734864        12.5717205513371        8.61311575124376   -0.000573953106037873   -0.000561552670846389    -0.00924460204229107
32        12.5534129524451        19.3107927730551        8.61715945184583   -0.000797265542647698    0.000669440913827887    -0.00889855601820213
33        19.3875732419786        12.6295234436581        8.66410970902674    0.000586290428893555    -0.00057178323212538    -0.00916288247008707
34        19.3523854399451        19.3361274931917        8.63568523280274     0.00079755036194014    0.000780982588679295    -0.00875180307335713
35        15.0085808737986        12.6152548648113        8.70314430093173    0.000718325328640899    -0.00115906067354278    -0.00807651022900185
36         14.925466651648        19.3717636891068        8.62689154296598     0.00114943986488972      0.0019044843714326    -0.00678830056911073
37        17.0467384176313        12.5997714033491        8.68559649360977   -0.000781852073058071    -0.00135022059401102    -0.00779333510452834
38        17.0508377573716        19.4434937904251        8.69655729984057    -0.00064885177914562     0.00120559198436874    -0.00812027672991007
39                       0                       0                5.656854                       0                       0                       0
40                       0                       0                2.828427                       0                       0                       0
41                       0                       0                       0                       0                       0                       0
42                       2                       2                5.656854    5.35555667383483e-10    7.54303738433068e-10    1.92713230892166e-10
43                       2                       2                2.828427                       0                       0                       0
44                       2                       2                       0                       0                       0                       0
45                       4                       0                5.656854                       0                       0                       0
46                       4                       0                2.828427                       0                       0                       0
47                       4                       0                       0                       0                       0                       0
48                       6                       2                5.656854    1.79911494802019e-08    3.60712942862879e-08    9.32570782479772e-09
49                       6                       2                2.828427    6.28611129890621e-10     1.3044815344346e-09    6.58512551880945e-10
50                       6                       2                       0                       0                       0                       0
51                       8                       0                5.656854    6.69329960553182e-10    8.24266350170411e-11    4.68373794568333e-10
52                       8                       0                2.828427    4.08435675158011e-10    8.53509936446781e-11    5.18879129084988e-10
53                       8                       0                       0                       0                       0                       0
54                      10                       2                5.656854    7.74420271492793e-08    3.02022469570124e-07    7.98633440774915e-08
55                      10                       2                2.828427    2.62481691436406e-09     1.0625924701991e-08    5.47005530423354e-09
56                      10                       2                       0    9.70573126896875e-10    4.21196654390086e-09    3.27565661345728e-09
57                      12                       0                5.656854    1.31801120116305e-09    2.92143261367825e-10    2.17314123324694e-09
58                      12                       0                2.828427    1.65674204071871e-09     3.2644237889403e-10    5.16268454313678e-09
59                      12                       0                       0                       0                       0                       0
60                      14                       2                5.656854    4.33970008174705e-08    7.26133670389817e-07    1.95066337375543e-07
61                      14                       2                2.828427    1.47297947932286e-09    2.51480821623639e-08    1.30833650564827e-08
62                      14                       2                       0    7.03230330772356e-10    1.07020981737941e-08    8.38558653764398e-09
63                      16                       0                5.656854   -1.95442706648018e-12    1.26901174514758e-10    3.24620363525693e-09
64                      16                       0                2.828427   -2.86032475599962e-11    6.49134494628825e-11    7.07017265603675e-09
65                      16                       0                       0                       0                       0                       0
66                      18                       2                5.656854   -4.62985591805828e-08    7.15510556539953e-07    1.92565298657152e-07
67                      18                       2                2.828427   -1.58332430537567e-09    2.47780994086794e-08    1.28905974449792e-08
68                      18                       2                       0   -7.74963705945185e-10    1.04948470822789e-08     8.2235098681794e-09
69                      20                       0                5.656854   -1.29761655014011e-09    7.73722355228495e-11    2.17199263012322e-09
70                      20                       0                2.828427   -1.27107335104285e-09   -1.42301047300196e-11    4.20502358144858e-09
71                      20                       0                       0                       0                       0                       0
72                      22                       2                5.656854   -7.51468093645292e-08    2.91996029148965e-07     7.7254409367347e-08
73                      22                       2                2.828427   -2.71684326919171e-09    1.06215634081908e-08    5.44587053825712e-09
74                      22                       2                       0    -9.4723745913396e-10    4.08915356197205e-09    3.17157328127988e-09
75                      24                       0                5.656854   -6.72170564476667e-10   -1.21928830925923e-12     4.7363776956394e-10
76                      24                       0                2.828427   -3.81876374531742e-10    2.26537244548386e-11    4.80214319493391e-10
77                      24                       0                       0                       0                       0                       0
78                      26                       2                5.656854   -1.74291350064277e-08    3.52066736578984e-08    9.07131408708937e-09
79                      26                       2                2.828427   -6.09290190316227e-10    1.27755358838727e-09    6.41751171936904e-10
80                      26                       2                       0                       0                       0                       0
81                      28                       0                5.656854                       0                       0                       0
82                      28                       0                2.828427                       0                       0                       0
83                      28                       0                       0                       0                       0                       0
84                      30                       2                5.656854   -5.41670223229514e-10    7.60696472553309e-10    1.93014598804681e-10
85                      30                       2                2.828427                       0                       0                       0
86                      30                       2                       0                       0                       0                       0
87                       0                       4                5.656854    -8.0974272114362e-13     2.9985367796065e-10    9.19326099999542e-11
88                       0                       4                2.828427                       0                       0                       0
89                       0                       4                       0                       0                       0                       0
90                       2                       6                5.656854    9.75626899649464e-08    8.91845045237235e-08    3.33190768335889e-08
91                       2                       6                2.828427    3.64860601107817e-09    3.29408609124263e-09    2.38690076907805e-09
92                       2                       6                       0    1.03836100919375e-09     9.6681174590272e-10    1.07462275572142e-09
93                       4                       4                5.656854    1.11100201201863e-08    1.50603036662891e-08    4.60455165851218e-09
94                       4                       4                2.828427    1.34355616763754e-08    1.84107050595854e-08    1.08814915578782e-08
95                       4                       4                       0    1.48652408081079e-10    2.03686082563491e-10    1.85768153759747e-10
96                       6                       6                5.656854    3.29288777549865e-06    4.82551083008107e-06    1.84800118291939e-06
97                       6                       6                2.828427    9.08155219037894e-08    1.31275582507499e-07    9.69454793568289e-08
98                       6                       6                       0    3.53715963059552e-08    5.02924291553776e-08    5.51050039836667e-08
99                       8                       4                5.656854     1.3096731508157e-07    3.05118160880268e-07    9.57585675658799e-08
100                       8                       4                2.828427    1.32534545938064e-07    3.06657886148049e-07    1.86107397892989e-07
101                       8                       4                       0    1.80182765093064e-09    4.20874950429632e-09     3.7869484232191e-09
102                      10                       6                5.656854    2.19838300491283e-05    6.53434450758402e-05    2.63330242777912e-05
103                      10                       6                2.828427    4.53584379722415e-07    1.32646640683169e-06    1.02301868501776e-06
104                      10                       6                       0    1.36460137914108e-07    3.90917115989869e-07    4.40312949347657e-07
105                      12                       4                5.656854    2.51028283809118e-07    1.56653539387815e-06    5.06678939076943e-07
106                      12                       4                2.828427    2.26486479086385e-07    1.36658950414544e-06    8.51034292736822e-07
107                      12                       4                       0    2.81635034667059e-09    1.65062495808092e-08    1.51597332501486e-08
108                      14                       6                5.656854    1.02226202870942e-05    0.000179477440810798    7.46034652546316e-05
109                      14                       6                2.828427    2.16954096830733e-07    3.25244677222011e-06    2.57541221018816e-06
110                      14                       6                       0    6.75834721357633e-08    8.66962543441558e-07     9.9835061761356e-07
111                      16                       4                5.656854   -6.24623569361956e-09    2.26854559560068e-06    7.42766691208944e-07
112                      16                       4                2.828427   -6.19791274754508e-09    1.94530642148834e-06     1.2218881558363e-06
113                      16                       4                       0    -7.5173506902705e-11    2.31363945921559e-08     2.1401081285764e-08
114                      18                       6                5.656854   -1.12085230357621e-05    0.000176427207752993    7.34457374038641e-05
115                      18                       6                2.828427   -2.33657291432139e-07    3.20065489681255e-06    2.53208455298557e-06
116                      18                       6                       0   -7.14555435582374e-08    8.56736077873895e-07    9.84865647806228e-07
117                      20                       4                5.656854     -2.495892642253e-07    1.51985230740651e-06    4.92150815894193e-07
118                      20                       4                2.828427   -2.24744649572987e-07    1.33015535887317e-06    8.26919378406157e-07
119                      20                       4                       0   -2.79700052380139e-09    1.61517238364776e-08    1.47992822276977e-08
120                      22                       6                5.656854   -2.10924242701056e-05      6.317180122363e-05    2.53621619326646e-05
121                      22                       6                2.828427   -4.38451295317054e-07    1.29381248777096e-06    9.92389812029498e-07
122                      22                       6                       0   -1.33051031024242e-07    3.84052247884291e-07    4.30554471644592e-07
123                      24                       4                5.656854    -1.2627581524249e-07    2.96790216545556e-07    9.28181443669063e-08
124                      24                       4                2.828427    -1.2827261139101e-07    2.99640228445467e-07    1.81036070359171e-07
125                      24                       4                       0   -1.74780044499735e-09    4.12987023720437e-09    3.69886140307632e-09
126                      26                       6                5.656854   -3.23339016937097e-06    4.77409844914661e-06    1.81672289676808e-06
127                      26                       6                2.828427   -8.95092071136403e-08    1.30451774522853e-07    9.58383483078296e-08
128                      26                       6                       0   -3.43761622490552e-08    4.93177936215938e-08    5.39627212267697e-08
129                      28                       4                5.656854   -1.09236567788229e-08     1.4878368862104e-08     4.5234529546521e-09
130                      28                       4                2.828427   -1.32567361940395e-08    1.82665198779291e-08    1.07469663371956e-08
131                      28                       4                       0   -1.45332217980107e-10    2.01281500628932e-10     1.8265862010049e-10
132                      30                       6                5.656854   -9.67700141495495e-08    8.85351515659552e-08    3.28761329583283e-08
133                      30                       6                2.828427   -3.63391156594076e-09    3.28430964358835e-09    2.37150383977744e-09
134                      30                       6                       0   -1.06029840746913e-09    9.83828347335987e-10    1.09228691374785e-09
135                       0                       8                5.656854    1.10010454829412e-10    1.26060489021423e-08    6.00346635179285e-09
136                       0                       8                2.828427    3.47449910964654e-11    1.43153902032513e-08    1.34113417764841e-08
137                       0                       8                       0   -1.84603315932143e-12    1.46227762437529e-10    2.18495360170457e-10
138                       2                      10                5.656854    3.16906624561974e-06    1.60925183659567e-06    1.09899578837725e-06
139                       2                      10                2.828427    8.96733013616533e-08    4.60552176827348e-08    5.98917944308964e-08
140                       2                      10                       0    3.62550797092718e-08    1.87005740928534e-08    3.55162499337968e-08
141                       4                       8                5.656854    1.00846350382956e-06    8.92566730457705e-07    4.39540676518681e-07
142                       4                       8                2.828427    8.41288628192664e-07    7.41030691554172e-07    6.99975566640972e-07
143                       4                       8                       0    9.84939506353653e-09     8.6273924814173e-09    1.19675052477095e-08
144                       6                      10                5.656854    0.000274913417876319    0.000233696216522462    0.000169543574291694
145                       6                      10                2.828427    3.93353689901041e-06    3.31360583635074e-06    4.52484906692731e-06
146                       6                      10                       0    8.70343688147697e-07     7.2640561457964e-07    1.42404179171777e-06
147                       8                       8                5.656854    2.35500346738938e-05    3.89875036533849e-05    2.01999399032497e-05
148                       8                       8                2.828427    1.22390081601233e-05    1.96268988078843e-05    1.93985254841182e-05
149                       8                       8                       0    9.23992228061104e-08    1.43969475542427e-07    2.06748637654889e-07
150                      10                      10                5.656854     0.00291743198329893     0.00571463429436362     0.00457303413101877
151                      10                      10                2.828427    2.45060556851189e-05    4.61573512573182e-05    6.82513219528969e-05
152                      10                      10                       0    3.51641654296073e-06    6.28831720369773e-06    1.31005133913936e-05
153                      12                       8                5.656854    6.07803824879584e-05    0.000292503629504951    0.000164577987750747
154                      12                       8                2.828427    2.30890109568806e-05    0.000104552974170788    0.000110050738296242
155                      12                       8                       0    1.39440591584823e-07    5.88744870742055e-07    8.85821437818667e-07
156                      14                      10                5.656854    0.000808245866958092      0.0149329510351222      0.0130625651505349
157                      14                      10                2.828427     8.0852392464635e-06    0.000109713236898877    0.000174629921960311
158                      14                      10                       0    1.39658838717103e-06    1.31900689807466e-05    2.89615828992152e-05
159                      16                       8                5.656854   -1.36140060989671e-06    0.000407391351191176     0.00023410772923852
160                      16                       8                2.828427   -6.14365063521259e-07    0.000143611990882832    0.000153732668056771
161                      16                       8                       0   -3.08415051276131e-09    7.99335434921838e-07     1.2204778087799e-06
162                      18                      10                5.656854   -0.000892284476162219      0.0148617771333886      0.0129836345331865
163                      18                      10                2.828427   -8.61708106160911e-06    0.000108540663096391    0.000172025733448721
164                      18                      10                       0   -1.44002753878832e-06    1.31273842340626e-05    2.86993476222674e-05
165                      20                       8                5.656854   -5.97581475019176e-05    0.000282661388854262    0.000158457132971404
166                      20                       8                2.828427   -2.26694257762132e-05    0.000102310611572638    0.000107065817001875
167                      20                       8                       0   -1.37444593783307e-07     5.8157821683617e-07    8.70390289457002e-07
168                      22                      10                5.656854    -0.00282485752274676     0.00567526210212689     0.00448534544942824
169                      22                      10                2.828427   -2.39712383156194e-05    4.61767222371446e-05    6.75769480684337e-05
170                      22                      10                       0   -3.47076505597746e-06    6.30542389641425e-06    1.30384756489857e-05
171                      24                       8                5.656854   -2.30010080517934e-05    3.86372151861104e-05    1.98520903320734e-05
172                      24                       8                2.828427   -1.20282891454476e-05    1.95536047302178e-05    1.91906004948125e-05
173                      24                       8                       0   -9.12832020518017e-08    1.43856959498686e-07    2.05392249969661e-07
174                      26                      10                5.656854   -0.000274931445843416     0.00023357724809208     0.00016853695152804
175                      26                      10                2.828427   -3.94796574712211e-06    3.32975534490766e-06    4.53395410919688e-06
176                      26                      10                       0   -8.73420207366595e-07    7.30463581181003e-07    1.42899975300154e-06
177                      28                       8                5.656854    -1.0028854888971e-06    8.87812860051642e-07     4.3467832453174e-07
178                      28                       8                2.828427   -8.40753569205739e-07    7.41315328985156e-07    6.98012302426414e-07
179                      28                       8                       0   -9.84820508263602e-09    8.64260023777807e-09    1.19622083553175e-08
180                      30                      10                5.656854   -3.13918460512654e-06    1.58723970834881e-06    1.08058799545202e-06
181                      30                      10                2.828427   -8.94172869477837e-08    4.57362036386082e-08    5.94799025986102e-08
182                      30                      10                       0   -3.63050376685979e-08    1.86480130987414e-08    3.54611314764964e-08
183                       0                      12                5.656854    2.09184824205992e-09    6.04336255825903e-08    6.35616416731793e-08
184                       0                      12                2.828427     1.4736639571013e-09    6.77304396366497e-08    1.35189087440824e-07
185                       0                      12                       0    6.29971789354534e-12    1.01054994125715e-09    2.87175458219345e-09
186                       2                      14                5.656854    1.87110749722597e-05     2.7388009531475e-06    6.49681658142307e-06
187                       2                      14                2.828427    4.52265181033778e-07    7.01481919555713e-08    3.03348477942036e-07
188                       2                      14                       0    1.57141671029876e-07    2.54892541245402e-08    1.53810531138761e-07
189                       4                      12                5.656854    2.29485518182332e-05    8.76108096363556e-06    1.02642927047286e-05
190                       4                      12                2.828427    1.26843976932316e-05    5.02967604754693e-06    1.08058734903444e-05
191                       4                      12                       0    1.00933439167501e-07    4.12961265174695e-08    1.24914418055232e-07
192                       6                      14                5.656854     0.00308790158564316    0.000649677852173191     0.00194959474025615
193                       6                      14                2.828427    2.88753949487222e-05    6.85159320219763e-06    3.41610782403558e-05
194                       6                      14                       0    4.43601575040218e-06    1.13571484505124e-06      7.460789513626e-06
195                       8                      12                5.656854     0.00129614030974632     0.00100960059398897     0.00132209508849405
196                       8                      12                2.828427    0.000282473768515048    0.000217211392194141    0.000508836507127102
197                       8                      12                       0    1.12285852393674e-06    8.50975224335431e-07    2.74152705033846e-06
198                      10                      14                5.656854     -0.0168344479977269    -0.00718148877703265      -0.124571196450546
199                      10                      14                2.828427    0.000181191373857392    0.000108287597343627    0.000626793170109546
200                      10                      14                       0    1.71157064264608e-05     9.9986458190938e-06    7.27664873346712e-05
201                      12                      12                5.656854     0.00176289132776637     0.00549304376319567     0.00762010020696174