ITEM: TIMESTEP
0
ITEM: NUMBER OF ATOMS
422
ITEM: BOX BOUNDS ff ff ff
0.0000000000000000e+00 2.3200000000000000e+02
0.0000000000000000e+00 2.3200000000000000e+02
0.0000000000000000e+00 2.3200000000000000e+02
ITEM: ATOMS id xu yu zu fx fy fz
1        113.135692575426        115.973281197265        108.646614381588    -0.00295748949046665      0.0010795566473685     -0.0894358827258441
2        118.797773249221        115.959514650784         108.62714240915     -0.0049535345829926      0.0339087744574425       0.571757324722093
3        117.398523472914        115.983973591762        108.653032478997     -0.0029964493467146     -0.0041712734500111      -0.170242648929656
4          114.5736327824        115.987512686387        108.659414743451    -0.00444072197609079    0.000318507113704951      -0.419716241538309
5        116.684199625405          114.7328493078        108.639978457636     0.00206452720141814    0.000176632103863352      0.0151838045914403
6        115.247757907305        114.721223525149        108.629784916437     0.00263709958330024    -0.00263822537605175      0.0753391353334632
7        115.249454620019        117.200134960379        108.633966754991     0.00784273925158631    -0.00475187201824541       0.635621440443111
8        116.695467771443        117.221332176604        108.653731730021   -0.000986031590992126      -0.010673734542663        -0.5690722427721
9         114.47524559007        113.505934910488        108.614342669313    -0.00389670320047938      0.0060038592120459       0.278803335146495
10          117.4372698259        113.528117747055        108.633570343169     -0.0027229864769314    -0.00153304288417371      0.0878852838775267
11        114.542527211412        118.451009312532        108.686517660639     -0.0130130114057245    -0.00437103998238475      -0.699125006328654
12        117.410031563362        118.378672266886        108.611225452707     0.00701014841057299    -0.00238418450999425       0.818534323764505
13        113.108508171907        113.543641499568        108.638050911671    -0.00398865534593866    -0.00241884494606451      -0.126143107032986
14        113.112226338051        118.394332292211        108.646631529937    -0.00761934166971446    -0.00795983292448631       0.277152127436909
15        118.869749443017        113.586973510421        108.675635216849    0.000380581274685657    -0.00268172830737397       0.158129179456721
16        118.873673675261        118.437870374345        108.684421903764      0.0141609316360512     0.00407032042146698      -0.509514660452961
17        112.408784255257        117.176308360758        108.638842417118      0.0188376489152934     0.00139957072947427       0.467712985629588
18        112.407095168344        114.749145924668        108.634720109605      0.0202166769729868     0.00462051780800774         0.5186060196714
19        119.590591621019        114.822397536599        108.700824424327     -0.0150450550939519     -0.0280390423724689      -0.908091116991773
20        119.521252608104        117.178531876035        108.633918633075     0.00410060305907372    -0.00982236672829674      0.0297316452645554
21        120.936136904184        114.805436967383         108.63785588156       0.020794857425779     0.00790363250082502        0.45126055591249
22        120.909307829021        117.114804696346         108.61337046677    -0.00146059508467454    -0.00279230490194313        0.31013404020896
23        111.062640197397        114.856473353728        108.698868524236     -0.0183254294505519    -0.00287094489239122      -0.703211369112856
24        111.060908242156        117.190938201284         108.69948022901     -0.0163241935436129     -0.0134607765924804      -0.726173225666247
25         121.55742825038        115.962698867759        108.627555789641    -0.00261655826291164   -1.18292976110732e-05      -0.175117295612809
26        110.399136683566        115.993196087758        108.669300109094   -0.000925661506482798      0.0026395320551776       0.474477170159501
27        121.620811846926        118.197537942029        108.668469801102     0.00247844681846601     0.00311210735383659      -0.093159146618525
28         121.61805514517        113.802574428164        108.661306858469     -0.0015347196390358    -0.00211634783749795     -0.0458766666181857
29        110.329123752992         118.14393448956        108.626163002264     0.00319683109572319      0.0157415284164197       0.172704660340291
30        110.335459958464        113.758063884933        108.628092968203     0.00131946060270551    -0.00860312118472002       0.119960401162328
31        112.607873211766        112.623461189617        108.664860389523   -0.000113527922638106   -7.41155339906449e-05    -0.00466386189066212
32        112.642168546982        119.399548367592        108.705919046383   -0.000222468949910827     0.00809355056580274      -0.138989468489601
33        119.417243667964        112.659193869643        108.693784135012     0.00155959185915113   -1.18301294675499e-05     -0.0476526083637447
34        119.392261374839        119.376003428085        108.675565167696    -0.00152305422725797     0.00175971319762844      0.0972150373612894
35        114.969347174124        112.576021165137        108.663914601257     0.00374706411450269    -0.00580463880020277       -0.14623686100758
36        114.927352719204        119.373649756663        108.628781610522      0.0108707883515601      0.0126647414927273       0.274843175638571
37        116.986574919889        112.539607905607        108.625436995868    0.000220256237600878   -5.53387426263775e-06      -0.011532530416269
38        117.046216274385        119.438872307439        108.691939816854     -0.0157720640433836      0.0137040870109902      -0.251097705552475
39                     100                     100              105.656854                       0                       0                       0
40                     100                     100              102.828427                       0                       0                       0
41                     100                     100                     100                       0                       0                       0
42                     102                     102              105.656854                       0                       0                       0
43                     102                     102              102.828427                       0                       0                       0
44                     102                     102                     100                       0                       0                       0
45                     104                     100              105.656854                       0                       0                       0
46                     104                     100              102.828427                       0                       0                       0
47                     104                     100                     100                       0                       0                       0
48                     106                     102              105.656854                       0                       0                       0
49                     106                     102              102.828427                       0                       0                       0
50                     106                     102                     100                       0                       0                       0
51                     108                     100              105.656854                       0                       0                       0
52                     108                     100              102.828427                       0                       0                       0
53                     108                     100                     100                       0                       0                       0
54                     110                     102              105.656854                       0                       0                       0
55                     110                     102              102.828427                       0                       0                       0
56                     110                     102                     100                       0                       0                       0
57                     112                     100              105.656854                       0                       0                       0
58                     112                     100              102.828427                       0                       0                       0
59                     112                     100                     100                       0                       0                       0
60                     114                     102              105.656854                       0                       0                       0
61                     114                     102              102.828427                       0                       0                       0
62                     114                     102                     100                       0                       0                       0
63                     116                     100              105.656854                       0                       0                       0
64                     116                     100              102.828427                       0                       0                       0
65                     116                     100                     100                       0                       0                       0
66                     118                     102              105.656854                       0                       0                       0
67                     118                     102              102.828427                       0                       0                       0
68                     118                     102                     100                       0                       0                       0
69                     120                     100              105.656854                       0                       0                       0
70                     120                     100              102.828427                       0                       0                       0
71                     120                     100                     100                       0                       0                       0
72                     122                     102              105.656854                       0                       0                       0
73                     122                     102              102.828427                       0                       0                       0
74                     122                     102                     100                       0                       0                       0
75                     124                     100              105.656854                       0                       0                       0
76                     124                     100              102.828427                       0                       0                       0
77                     124                     100                     100                       0                       0                       0
78                     126                     102              105.656854                       0                       0                       0
79                     126                     102              102.828427                       0                       0                       0
80                     126                     102                     100                       0                       0                       0
81                     128                     100              105.656854                       0                       0                       0
82                     128                     100              102.828427                       0                       0                       0
83                     128                     100                     100                       0                       0                       0
84                     130                     102              105.656854                       0                       0                       0
85                     130                     102              102.828427                       0                       0                       0
86                     130                     102                     100                       0                       0                       0
87                     100                     104              105.656854                       0                       0                       0
88                     100                     104              102.828427                       0                       0                       0
89                     100                     104                     100                       0                       0                       0
90                     102                     106              105.656854                       0                       0                       0
91                     102                     106              102.828427                       0                       0                       0
92                     102                     106                     100                       0                       0                       0
93                     104                     104              105.656854                       0                       0                       0
94                     104                     104              102.828427                       0                       0                       0
95                     104                     104                     100                       0                       0                       0
96                     106                     106              105.656854                       0                       0                       0
97                     106                     106              102.828427                       0                       0                       0
98                     106                     106                     100                       0                       0                       0
99                     108                     104              105.656854                       0                       0                       0
100                     108                     104              102.828427                       0                       0                       0
101                     108                     104                     100                       0                       0                       0
102                     110                     106              105.656854                       0                       0                       0
103                     110                     106              102.828427                       0                       0                       0
104                     110                     106                     100                       0                       0                       0
105                     112                     104              105.656854                       0                       0                       0
106                     112                     104              102.828427                       0                       0                       0
107                     112                     104                     100                       0                       0                       0
108                     114                     106              105.656854                       0                       0                       0
109                     114                     106              102.828427                       0                       0                       0
110                     114                     106                     100                       0                       0                       0
111                     116                     104              105.656854                       0                       0                       0
112                     116                     104              102.828427                       0                       0                       0
113                     116                     104                     100                       0                       0                       0
114                     118                     106              105.656854                       0                       0                       0
115                     118                     106              102.828427                       0                       0                       0
116                     118                     106                     100                       0                       0                       0
117                     120                     104              105.656854                       0                       0                       0
118                     120                     104              102.828427                       0                       0                       0
119                     120                     104                     100                       0                       0                       0
120                     122                     106              105.656854                       0                       0                       0
121                     122                     106              102.828427                       0                       0                       0
122                     122                     106                     100                       0                       0                       0
123                     124                     104              105.656854                       0                       0                       0
124                     124                     104              102.828427                       0                       0                       0
125                     124                     104                     100                       0                       0                       0
126                     126                     106              105.656854                       0                       0                       0
127                     126                     106              102.828427                       0                       0                       0
128                     126                     106                     100                       0                       0                       0
129                     128                     104              105.656854                       0                       0                       0
130                     128                     104              102.828427                       0                       0                       0
131                     128                     104                     100                       0                       0                       0
132                     130                     106              105.656854                       0                       0                       0
133                     130                     106              102.828427                       0                       0                       0
134                     130                     106                     100                       0                       0                       0
135                     100                     108              105.656854                       0                       0                       0
136                     100                     108              102.828427                       0                       0                       0
137                     100                     108                     100                       0                       0                       0
138                     102                     110              105.656854                       0                       0                       0
139                     102                     110              102.828427                       0                       0                       0
140                     102                     110                     100                       0                       0                       0
141                     104                     108              105.656854                       0                       0                       0
142                     104                     108              102.828427                       0                       0                       0
143                     104                     108                     100                       0                       0                       0
144                     106                     110              105.656854                       0                       0                       0
145                     106                     110              102.828427                       0                       0                       0
146                     106                     110                     100                       0                       0                       0
147                     108                     108              105.656854                       0                       0                       0
148                     108                     108              102.828427                       0                       0                       0
149                     108                     108                     100                       0                       0                       0
150                     110                     110              105.656854                       0                       0                       0
151                     110                     110              102.828427                       0                       0                       0
152                     110                     110                     100                       0                       0                       0
153                     112                     108              105.656854                       0                       0                       0
154                     112                     108              102.828427                       0                       0                       0
155                     112                     108                     100                       0                       0                       0
156                     114                     110              105.656854                       0                       0                       0
157                     114                     110              102.828427                       0                       0                       0
158                     114                     110                     100                       0                       0                       0
159                     116                     108              105.656854                       0                       0                       0
160                     116                     108              102.828427                       0                       0                       0
161                     116                     108                     100                       0                       0                       0
162                     118                     110              105.656854                       0                       0                       0
163                     118                     110              102.828427                       0                       0                       0
164                     118                     110                     100                       0                       0                       0
165                     120                     108              105.656854                       0                       0                       0
166                     120                     108              102.828427                       0                       0                       0
167                     120                     108                     100                       0                       0                       0
168                     122                     110              105.656854                       0                       0                       0
169                     122                     110              102.828427                       0                       0                       0
170                     122                     110                     100                       0                       0                       0
171                     124                     108              105.656854                       0                       0                       0
172                     124                     108              102.828427                       0                       0                       0
173                     124                     108                     100                       0                       0                       0
174                     126                     110              105.656854                       0                       0                       0
175                     126                     110              102.828427                       0                       0                       0
176                     126                     110                     100                       0                       0                       0
177                     128                     108              105.656854                       0                       0                       0
178                     128                     108              102.828427                       0                       0                       0
179                     128                     108                     100                       0                       0                       0
180                     130                     110              105.656854                       0                       0                       0
181                     130                     110              102.828427                       0                       0                       0
182                     130                     110                     100                       0                       0                       0
183                     100                     112              105.656854                       0                       0                       0
184                     100                     112              102.828427                       0                       0                       0
185                     100                     112                     100                       0                       0                       0
186                     102                     114              105.656854                       0                       0                       0
187                     102                     114              102.828427                       0                       0                       0
188                     102                     114                     100                       0                       0                       0
189                     104                     112              105.656854                       0                       0                       0
190                     104                     112              102.828427                       0                       0                       0
191                     104                     112                     100                       0                       0                       0
192                     106                     114              105.656854                       0                       0                       0
193                     106                     114              102.828427                       0                       0                       0
194                     106                     114                     100                       0                       0                       0
195                     108                     112              105.656854                       0                       0                       0
196                     108                     112              102.828427                       0                       0                       0
197                     108                     112                     100                       0                       0                       0
198                     110                     114              105.656854                       0                       0                       0
199                     110                     114              102.828427                       0                       0                       0
200                     110                     114                     100                       0                       0                       0
201                     112                     112              105.656854                       0                       0                       0