ITEM: TIMESTEP
0
ITEM: NUMBER OF ATOMS
422
ITEM: BOX BOUNDS ff ff ff
0.0000000000000000e+00 2.3200000000000000e+02
0.0000000000000000e+00 2.3200000000000000e+02
0.0000000000000000e+00 2.3200000000000000e+02
ITEM: ATOMS id xu yu zu fx fy fz
1        113.124301915032         115.96189053687        108.635223721193        1.75563531132639         2.6252052905224      0.0655296198885014
2        118.825936294035        115.987677695598        108.655305453964        2.09202403151961        1.92839445757127     -0.0214580778012133
3        117.425840224647        116.011290343495         108.68034923073      -0.956227102570508       -1.87905903618829      0.0194250082082719
4        114.620583823695        116.034463727682        108.706365784746       -1.28443692104645       -1.71660642186749     -0.0140178735183431
5        116.739777484092        114.788427166487        108.695556316323        -1.1025876999274       -1.09549822562778    -0.00363599789138678
6        115.303458365519        114.776923983363        108.685485374651       0.720832443417875        1.28562211452406    -0.00715431444606628
7        115.224557920514        117.175238260874        108.609070055486      0.0787083729813534      -0.510401508526196      0.0172865214218857
8        116.674575281248        117.200439686409        108.632839239827          2.301655738358     -0.0191098254522617      0.0185452937880331
9        114.534982460504        113.565671780922        108.674079539747       -0.83610863136509         -0.777427480345    -0.00684376244892503
10        117.442628070126        113.533475991281        108.638928587395        1.60828582725612       0.769999899530658      0.0156081918491691
11        114.463808544381        118.372290645501        108.607798993608      0.0459103769520466       0.922473710864111     0.00226460178254923
12        117.472890068058        118.441530771581        108.674083957402       -1.01600314047126        1.43274542706341     -0.0334095027221956
13        113.156788628633        113.591921956295        108.686331368398       -0.87317312216805      -0.152352730684438      0.0119769999377018
14        113.091229831894        118.373335786055        108.625635023781       0.886997176887951      -0.501438793805571      -0.139491006147522
15        118.874901980543        113.592126047947        108.680787754375        0.60508217496661      -0.963305349758428     0.00870765964605921
16        118.889807891283        118.454004590368        108.700556119787       0.405100547989582      -0.284538533084961     -0.0126286814587382
17        112.467212650692        117.234736756193        108.697270812553       -2.25240579060476        -2.7695829210277      0.0365676624887352
18        112.431890457604        114.773941213928        108.659515398864        0.97916843295814     -0.0633357066647241      0.0309393845143194
19         119.59317520006         114.82498111564        108.703408003368       -2.32229196229746       -2.63933262394386      0.0671866435693586
20        119.590862367042        117.248141634973        108.703528392014      -0.909124067230095      -0.866356042026626     -0.0425322462826256
21        120.938284734824        114.807584798022          108.6400037122       0.797587472709175        3.23940235776508     -0.0852547875008064
22        120.959897694766        117.165394562091        108.663960332515       -1.32362873616367       0.518908161548707      0.0512785356043457
23        110.995031465937        114.788864622269        108.631259792776        2.29063606045308        1.24069137817641      -0.155572964651208
24         110.96906604773        117.099096006859        108.607638034585        1.16561043954272        1.78609858455631      -0.109314114142232
25        121.557566554214        115.962837171592        108.627694093475        1.71648030671894       0.174258909225502      -0.105762579342654
26         110.40574368682        115.999803091012        108.675907112348       -2.89567449938941      -0.522990559871226        0.26916141585172
27        121.626073430424        118.202799525527          108.6737313846        0.31563658871902      -0.202577954115684     -0.0116734213863749
28        121.625823126463        113.810342409458        108.669074839763       -1.43426739062388      -0.986655038599976      0.0749770556131135
29        110.310951602306        118.125762338875        108.607990851579      -0.460090286719462      -0.294916597733464     -0.0315241157372661
30        110.386929332143        113.809533258612        108.679562341883      -0.273387494693195       0.172150643864996      0.0485482853069639
31        112.553883488043        112.569471465894          108.6108706658      0.0949130426404225     -0.0567831245244884       0.011057042551781
32        112.592760502936        119.350140323546        108.656511002337      -0.486325493525158      -0.249036754654166      0.0272668130680512
33        119.424656192592        112.666606394271         108.70119665964      0.0450676726381233      0.0267867018357811    0.000758303587513057
34        119.423176526908        119.406918580155        108.706480319766      0.0587280209109156     -0.0328754721532344     0.00064362268193066
35        114.933061730048        112.539735721061        108.627629157181        1.00978006500427       0.392078634828736    -0.00592242903801223
36        114.989403432952        119.435700470411         108.69083232427       0.327981305715465      -0.161328314800488    -0.00996205775795705
37        116.999655365137        112.552688350855        108.638517441116      -0.706800517318664       0.319219768740307      0.0158904127697893
38        116.983479036376         119.37613506943        108.629202578845      -0.169288553551278     -0.0885270251616937     0.00253885814373301
39                     100                     100              105.656854                       0                       0                       0
40                     100                     100              102.828427                       0                       0                       0
41                     100                     100                     100                       0                       0                       0
42                     102                     102              105.656854                       0                       0                       0
43                     102                     102              102.828427                       0                       0                       0
44                     102                     102                     100                       0                       0                       0
45                     104                     100              105.656854                       0                       0                       0
46                     104                     100              102.828427                       0                       0                       0
47                     104                     100                     100                       0                       0                       0
48                     106                     102              105.656854                       0                       0                       0
49                     106                     102              102.828427                       0                       0                       0
50                     106                     102                     100                       0                       0                       0
51                     108                     100              105.656854                       0                       0                       0
52                     108                     100              102.828427                       0                       0                       0
53                     108                     100                     100                       0                       0                       0
54                     110                     102              105.656854                       0                       0                       0
55                     110                     102              102.828427                       0                       0                       0
56                     110                     102                     100                       0                       0                       0
57                     112                     100              105.656854                       0                       0                       0
58                     112                     100              102.828427                       0                       0                       0
59                     112                     100                     100                       0                       0                       0
60                     114                     102              105.656854                       0                       0                       0
61                     114                     102              102.828427                       0                       0                       0
62                     114                     102                     100                       0                       0                       0
63                     116                     100              105.656854                       0                       0                       0
64                     116                     100              102.828427                       0                       0                       0
65                     116                     100                     100                       0                       0                       0
66                     118                     102              105.656854                       0                       0                       0
67                     118                     102              102.828427                       0                       0                       0
68                     118                     102                     100                       0                       0                       0
69                     120                     100              105.656854                       0                       0                       0
70                     120                     100              102.828427                       0                       0                       0
71                     120                     100                     100                       0                       0                       0
72                     122                     102              105.656854                       0                       0                       0
73                     122                     102              102.828427                       0                       0                       0
74                     122                     102                     100                       0                       0                       0
75                     124                     100              105.656854                       0                       0                       0
76                     124                     100              102.828427                       0                       0                       0
77                     124                     100                     100                       0                       0                       0
78                     126                     102              105.656854                       0                       0                       0
79                     126                     102              102.828427                       0                       0                       0
80                     126                     102                     100                       0                       0                       0
81                     128                     100              105.656854                       0                       0                       0
82                     128                     100              102.828427                       0                       0                       0
83                     128                     100                     100                       0                       0                       0
84                     130                     102              105.656854                       0                       0                       0
85                     130                     102              102.828427                       0                       0                       0
86                     130                     102                     100                       0                       0                       0
87                     100                     104              105.656854                       0                       0                       0
88                     100                     104              102.828427                       0                       0                       0
89                     100                     104                     100                       0                       0                       0
90                     102                     106              105.656854                       0                       0                       0
91                     102                     106              102.828427                       0                       0                       0
92                     102                     106                     100                       0                       0                       0
93                     104                     104              105.656854                       0                       0                       0
94                     104                     104              102.828427                       0                       0                       0
95                     104                     104                     100                       0                       0                       0
96                     106                     106              105.656854                       0                       0                       0
97                     106                     106              102.828427                       0                       0                       0
98                     106                     106                     100                       0                       0                       0
99                     108                     104              105.656854                       0                       0                       0
100                     108                     104              102.828427                       0                       0                       0
101                     108                     104                     100                       0                       0                       0
102                     110                     106              105.656854                       0                       0                       0
103                     110                     106              102.828427                       0                       0                       0
104                     110                     106                     100                       0                       0                       0
105                     112                     104              105.656854                       0                       0                       0
106                     112                     104              102.828427                       0                       0                       0
107                     112                     104                     100                       0                       0                       0
108                     114                     106              105.656854                       0                       0                       0
109                     114                     106              102.828427                       0                       0                       0
110                     114                     106                     100                       0                       0                       0
111                     116                     104              105.656854                       0                       0                       0
112                     116                     104              102.828427                       0                       0                       0
113                     116                     104                     100                       0                       0                       0
114                     118                     106              105.656854                       0                       0                       0
115                     118                     106              102.828427                       0                       0                       0
116                     118                     106                     100                       0                       0                       0
117                     120                     104              105.656854                       0                       0                       0
118                     120                     104              102.828427                       0                       0                       0
119                     120                     104                     100                       0                       0                       0
120                     122                     106              105.656854                       0                       0                       0
121                     122                     106              102.828427                       0                       0                       0
122                     122                     106                     100                       0                       0                       0
123                     124                     104              105.656854                       0                       0                       0
124                     124                     104              102.828427                       0                       0                       0
125                     124                     104                     100                       0                       0                       0
126                     126                     106              105.656854                       0                       0                       0
127                     126                     106              102.828427                       0                       0                       0
128                     126                     106                     100                       0                       0                       0
129                     128                     104              105.656854                       0                       0                       0
130                     128                     104              102.828427                       0                       0                       0
131                     128                     104                     100                       0                       0                       0
132                     130                     106              105.656854                       0                       0                       0
133                     130                     106              102.828427                       0                       0                       0
134                     130                     106                     100                       0                       0                       0
135                     100                     108              105.656854                       0                       0                       0
136                     100                     108              102.828427                       0                       0                       0
137                     100                     108                     100                       0                       0                       0
138                     102                     110              105.656854                       0                       0                       0
139                     102                     110              102.828427                       0                       0                       0
140                     102                     110                     100                       0                       0                       0
141                     104                     108              105.656854                       0                       0                       0
142                     104                     108              102.828427                       0                       0                       0
143                     104                     108                     100                       0                       0                       0
144                     106                     110              105.656854                       0                       0                       0
145                     106                     110              102.828427                       0                       0                       0
146                     106                     110                     100                       0                       0                       0
147                     108                     108              105.656854                       0                       0                       0
148                     108                     108              102.828427                       0                       0                       0
149                     108                     108                     100                       0                       0                       0
150                     110                     110              105.656854                       0                       0                       0
151                     110                     110              102.828427                       0                       0                       0
152                     110                     110                     100                       0                       0                       0
153                     112                     108              105.656854                       0                       0                       0
154                     112                     108              102.828427                       0                       0                       0
155                     112                     108                     100                       0                       0                       0
156                     114                     110              105.656854                       0                       0                       0
157                     114                     110              102.828427                       0                       0                       0
158                     114                     110                     100                       0                       0                       0
159                     116                     108              105.656854                       0                       0                       0
160                     116                     108              102.828427                       0                       0                       0
161                     116                     108                     100                       0                       0                       0
162                     118                     110              105.656854                       0                       0                       0
163                     118                     110              102.828427                       0                       0                       0
164                     118                     110                     100                       0                       0                       0
165                     120                     108              105.656854                       0                       0                       0
166                     120                     108              102.828427                       0                       0                       0
167                     120                     108                     100                       0                       0                       0
168                     122                     110              105.656854                       0                       0                       0
169                     122                     110              102.828427                       0                       0                       0
170                     122                     110                     100                       0                       0                       0
171                     124                     108              105.656854                       0                       0                       0
172                     124                     108              102.828427                       0                       0                       0
173                     124                     108                     100                       0                       0                       0
174                     126                     110              105.656854                       0                       0                       0
175                     126                     110              102.828427                       0                       0                       0
176                     126                     110                     100                       0                       0                       0
177                     128                     108              105.656854                       0                       0                       0
178                     128                     108              102.828427                       0                       0                       0
179                     128                     108                     100                       0                       0                       0
180                     130                     110              105.656854                       0                       0                       0
181                     130                     110              102.828427                       0                       0                       0
182                     130                     110                     100                       0                       0                       0
183                     100                     112              105.656854                       0                       0                       0
184                     100                     112              102.828427                       0                       0                       0
185                     100                     112                     100                       0                       0                       0
186                     102                     114              105.656854                       0                       0                       0
187                     102                     114              102.828427                       0                       0                       0
188                     102                     114                     100                       0                       0                       0
189                     104                     112              105.656854                       0                       0                       0
190                     104                     112              102.828427                       0                       0                       0
191                     104                     112                     100                       0                       0                       0
192                     106                     114              105.656854                       0                       0                       0
193                     106                     114              102.828427                       0                       0                       0
194                     106                     114                     100                       0                       0                       0
195                     108                     112              105.656854                       0                       0                       0
196                     108                     112              102.828427                       0                       0                       0
197                     108                     112                     100                       0                       0                       0
198                     110                     114              105.656854                       0                       0                       0
199                     110                     114              102.828427                       0                       0                       0
200                     110                     114                     100                       0                       0                       0
201                     112                     112              105.656854                       0                       0                       0