ITEM: TIMESTEP
0
ITEM: NUMBER OF ATOMS
422
ITEM: BOX BOUNDS ff ff ff
0.0000000000000000e+00 2.3200000000000000e+02
0.0000000000000000e+00 2.3200000000000000e+02
0.0000000000000000e+00 2.3200000000000000e+02
ITEM: ATOMS id xu yu zu fx fy fz
1        113.145932193839        116.183520815677              108.656854     -0.0047298441960563    -0.00771202753629257     0.00893094910192473
2        118.827484840071        116.189226241634              108.656854     0.00199844440510375    -0.00805039781410554     0.00997757313799319
3        117.402344993917        116.187795112765              108.656854    -0.00125718461076008    -0.00435110956331415      0.0156426099213448
4        114.571072038949        116.184951942936              108.656854     0.00702599693289623    -0.00434399471242419      0.0163456954135079
5        116.701075167769        114.949724850164              108.656854     -0.0128172406735229      0.0163612517234758      0.0305152847593646
6        115.274826990867        114.948292608712              108.656854      0.0210133103287667      0.0169439540539084      0.0322774138054156
7        115.272341865028        117.423022205388              108.656854      0.0294538808110089    -0.00803317568308667      0.0491300090139075
8        116.698590041422        117.424454446583              108.656854     -0.0210983073872597    -0.00749385432657001      0.0463218446435158
9        114.517756920757        113.748446241175              108.656854      0.0332864252945217     -0.0250133989100104       0.173687840358554
10        117.460553482731        113.751401403886              108.656854     -0.0527080222943612     -0.0246158691276183       0.172147785456052
11        114.512863550773        118.621345651893              108.656854      0.0271570464086582      0.0256255454345456       0.140297941637629
12        117.455660110655        118.624300814179              108.656854     -0.0461468498547215      0.0254036062172327       0.137662538841549
13        113.127311260236        113.762444587898              108.656854     -0.0323263657535714     -0.0209879876973698       0.121388854765317
14        113.122448808114        118.604554762274              108.656854     -0.0252842559573277      0.0197822728416511      0.0971159887764876
15        118.850968226168        113.768192293572              108.656854      0.0163762589341943     -0.0210206154400082       0.126746699200138
16        118.846105771496         118.61030247058              108.656854     0.00956426240164349      0.0212779290508811       0.102293479788835
17        112.426795838139         117.39431994364              108.656854     -0.0111920784783458     0.00231819547652359      0.0261425271952323
18         112.42922905874        114.971279815063              108.656854    -0.00593397033725891     0.00724304364353018        0.01754967530703
19        119.546621196692        114.978427112272              108.656854      0.0162860511418726     0.00750377471695111      0.0168962639873627
20        119.544187975028         117.40146724296              108.656854      0.0220387884674439     0.00162064247909663      0.0266254478536991
21        120.955135022624        115.024435085822              108.656854       0.137057074896828       0.122147079073459      0.0327425830632282
22        120.952791362251        117.358288229576              108.656854       0.124321749587432     -0.0268403903253724      0.0321733635369663
23        111.020625673161        115.014458829493              108.656854     -0.0185800566194261       0.124315804113728      0.0563129843840967
24        111.018282013145        117.348311972274              108.656854    -0.00749214945824735     -0.0222636761346568      0.0562708458314369
25        121.586726460739        116.191997078118              108.656854      -0.057465674659679     -0.0367804431646076     0.00586026598141131
26        110.386690574472        116.180749978664              108.656854    -0.00878503587283893     -0.0382899107522343    -0.00827145330258209
27        121.609196045824        118.385922140926              108.656854      -0.172912128444818     -0.0257498041795952       0.172575212851219
28          121.6136022867        113.998121569695              108.656854      -0.180317275070728     -0.0577596302547503       0.179484969386273
29        110.359814750727        118.374625487296              108.656854      0.0254354055641172      -0.035958097035059       0.143688751587164
30         110.36422099026         113.98682491673              108.656854      0.0297542358545587       -0.05883514447135       0.148084723399015
31        112.599866822243        112.815454800093              108.656854     -0.0164789354538762      0.0280908199733511     0.00873220496351437
32        112.593103500599        119.550483321209              108.656854     -0.0153429880726322      0.0190293097385095     0.00950077547385047
33        119.380313532952        112.822263734631              108.656854      0.0589648614440875      0.0286555373188888     0.00261034167248808
34        119.373550207142        119.557292260389              108.656854      0.0558011446202349      0.0170422831082331     0.00356116348178453
35        114.962286572867         112.76896056388              108.656854     0.00530036045825546      0.0156829621385377    -0.00210659644815392
36        114.955425108682        119.601722146141              108.656854     0.00407916410701505      0.0149555051400988    -0.00373933355158079
37        117.017991924022        112.771024909739              108.656854      0.0214500792707875      0.0158469436790331    -0.00300478904099275
38        117.011130457531        119.603786490585              108.656854       0.021520671785939      0.0144691245045043    -0.00431470962769032
39                     100                     100              105.656854       0.212158034583122       0.213958171218286      -0.975692978757952
40                     100                     100              102.828427        0.43201934747194       0.430440691905967   -0.000359742621376739
41                     100                     100                     100       0.212141623665457       0.213435565276352       0.976301790479595
42                     102                     102              105.656854      -0.344472791155416      -0.347538536269437      -0.277949674183521
43                     102                     102              102.828427     -0.0509095784126109     -0.0483372728052171     0.00065295570979575
44                     102                     102                     100       -0.34448083476249      -0.346468181645347       0.276882112493354
45                     104                     100              105.656854      0.0957766970680215       0.960053790613409       -0.80895373230723
46                     104                     100              102.828427     -0.0637561796513781       0.726704550927092   -0.000256650199880559
47                     104                     100                     100       0.096145925436181       0.959447734338566       0.809356873781806
48                     106                     102              105.656854      -0.149109608597775      -0.514855525036316       -0.38142592463639
49                     106                     102              102.828427        0.14220751235298      0.0665130542377543    0.000340789767996682
50                     106                     102                     100      -0.150111022392647      -0.513755174740284       0.380929823269268
51                     108                     100              105.656854       0.109574982177618        1.06005504581358      -0.801912217346744
52                     108                     100              102.828427      -0.111549287407479       0.639893785892436     0.00025649758758363
53                     108                     100                     100       0.110590955429283        1.06002334449901        0.80143407422332
54                     110                     102              105.656854      -0.143226202492231      -0.581818034240903      -0.373843528203943
55                     110                     102              102.828427       0.147949245809928       0.134761446574044   -0.000943154342725969
56                     110                     102                     100      -0.145512962926242      -0.582578879916157       0.375466702462758
57                     112                     100              105.656854       0.131733699552002        1.10843956977757      -0.810647199656005
58                     112                     100              102.828427      -0.135489971180557        0.58945700461163     0.00112549229152112
59                     112                     100                     100       0.132840834793638        1.10983976476044       0.808731030538959
60                     114                     102              105.656854      -0.163890913172556      -0.618891447036013      -0.361464504997706
61                     114                     102              102.828427       0.168779652263036       0.174833503863467    -0.00252923697733788
62                     114                     102                     100      -0.165279364133992      -0.622655370214405       0.365650031636161
63                     116                     100              105.656854       0.166588788589703        1.14398012407369      -0.821178258538785
64                     116                     100              102.828427      -0.170772024342915       0.552255476950907     0.00159961191440583
65                     116                     100                     100       0.166587555429229        1.14625812631195        0.81848759633189
66                     118                     102              105.656854      -0.209407701218356      -0.651090968097768      -0.348031933704185
67                     118                     102              102.828427       0.214310405000491       0.208080202129489    -0.00252688434161867
68                     118                     102                     100      -0.208014947311894      -0.654848303256802       0.352213672449677
69                     120                     100              105.656854        0.22314555222543        1.18252297473956      -0.835215047055522
70                     120                     100              102.828427      -0.228598235263316       0.512949392088209     0.00112460882988237
71                     120                     100                     100       0.222039426679809        1.18392025394819       0.833300310303074
72                     122                     102              105.656854      -0.288626662200491      -0.687988653846901      -0.330314486416436
73                     122                     102              102.828427        0.29348473366682         0.2443262210837    -0.00094226659147096
74                     122                     102                     100      -0.286347116270415      -0.688746046172458       0.331936132289551
75                     124                     100              105.656854       0.326302440581714         1.2366973702274      -0.852110303013137
76                     124                     100              102.828427      -0.322964800412131       0.459509935147646    0.000257736722712245
77                     124                     100                     100       0.325290041398531        1.23666714638769       0.851630205814628
78                     126                     102              105.656854      -0.461650906179491      -0.727652319675968      -0.331994664114844
79                     126                     102              102.828427       0.397205640537778       0.281688163962084    0.000336230660928992
80                     126                     102                     100      -0.460654351888941      -0.726559899524623       0.331505722924797
81                     128                     100              105.656854       0.708253483558818        1.34069937603275      -0.754753709716194
82                     128                     100              102.828427       -0.28091417673478       0.396086477626671   -0.000253491619164596
83                     128                     100                     100       0.707885420133866        1.34009798574283       0.755151713979996
84                     130                     102              105.656854       -1.34061304550461      -0.708710169474473      -0.755390840302858
85                     130                     102              102.828427      -0.395851988936786       0.281004736228132    0.000647282542689362
86                     130                     102                     100       -1.34060389701826      -0.707647901450981       0.754332442353868
87                     100                     104              105.656854        0.95905283766788       0.100007260776572      -0.808452372423946
88                     100                     104              102.828427       0.727695974506253     -0.0672117260319602    -0.00100848112463703
89                     100                     104                     100       0.958528050408288      0.0987196073127581       0.810122385888201
90                     102                     106              105.656854      -0.513691823941431      -0.157033814182462      -0.382720735250832
91                     102                     106              102.828427      0.0651730446387784       0.148157747853451     0.00208031517896115
92                     102                     106                     100      -0.512442564426963      -0.154117237388238       0.379378435241805
93                     104                     104              105.656854       0.247134654871054       0.252805165358256      -0.388568969718604
94                     104                     104              102.828427      -0.179934939230473      -0.184364610105563    -0.00125070302790475
95                     104                     104                     100        0.24730577090724       0.250441068536115        0.39054716664209
96                     106                     106              105.656854      -0.232991527586562      -0.244714292917454      -0.504498566326751
97                     106                     106              102.828427       0.225183724819029       0.233262645707575      0.0024764098412026
98                     106                     106                     100      -0.234076987871901      -0.239084460243464       0.500578094127817
99                     108                     104              105.656854       0.173073447549361       0.338433159548872       -0.37529823991271
100                     108                     104              102.828427      -0.177101925833193      -0.268646638722804   -0.000215279848875853
101                     108                     104                     100       0.176024997844319       0.336662767634741       0.375537086464365
102                     110                     106              105.656854      -0.181652638394496       -0.29264844930702      -0.489920415230739
103                     110                     106              102.828427       0.191924191693251       0.285361060202517    -0.00120136325720938
104                     110                     106                     100      -0.190719638349253      -0.291671101437922       0.491989150740288
105                     112                     104              105.656854       0.166929648271767       0.379263922422576      -0.390834304354397
106                     112                     104              102.828427      -0.174044940794705      -0.314347570419465     0.00300244127811721
107                     112                     104                     100       0.171648460892281       0.383324734763741       0.385857610994851
108                     114                     106              105.656854      -0.188159643601008      -0.307674231537056      -0.467330225290554
109                     114                     106              102.828427       0.197392871379358       0.311553320240455    -0.00831058000872749
110                     114                     106                     100      -0.195012944640236      -0.322140706640958       0.481484634863931
111                     116                     104              105.656854       0.198200241929289       0.405317274657852      -0.406195000317706
112                     116                     104              102.828427      -0.203404021460394      -0.344068963733435     0.00511534301440696
113                     116                     104                     100       0.198189980171844       0.413813566305515       0.397809055463813
114                     118                     106              105.656854      -0.241082957741737      -0.329923921869836      -0.451442324689632
115                     118                     106              102.828427       0.243441165336536       0.334469010708249    -0.00829253084499953
116                     118                     106                     100       -0.23419450892541      -0.344338618691731       0.465563985636577
117                     120                     104              105.656854       0.260483728206008       0.435940668337137      -0.421554112371356
118                     120                     104              102.828427      -0.264948394348178      -0.372858842599243     0.00299448319039468
119                     120                     104                     100        0.25577065350754       0.439979486805681       0.416590556906725
120                     122                     106              105.656854      -0.318567833693893      -0.362642346566901      -0.438149413502413
121                     122                     106              102.828427       0.320010427154145       0.357623967713815    -0.00119325238527598
122                     122                     106                     100      -0.309552616457225      -0.361644761251282       0.440204758949635
123                     124                     104              105.656854       0.368158136083587       0.463731709032376      -0.438622778325513
124                     124                     104              102.828427      -0.362563016666684      -0.397854010046951   -0.000211086539301193
125                     124                     104                     100       0.365224114786419       0.461970302761618       0.438854999105703
126                     126                     106              105.656854      -0.466238617702517       -0.36899266644253      -0.441405734287059
127                     126                     106              102.828427       0.401151770357642       0.361493260364765     0.00245667133477971
128                     126                     106                     100      -0.465164608776567      -0.363405614059481       0.437518148407551
129                     128                     104              105.656854       0.728035589540937        0.46229354950494      -0.330716512741825
130                     128                     104              102.828427      -0.282661825780583       -0.39704620125423    -0.00123997305733334
131                     128                     104                     100       0.727864582660235       0.459947729607929       0.332677802223464
132                     130                     106              105.656854       -1.23670343689091      -0.328284198123656      -0.853554051596373
133                     130                     106              102.828427       -0.45871767276553       0.323891615583425     0.00206333915562446
134                     130                     106                     100       -1.23794118036309      -0.325391439969835       0.850238566195183
135                     100                     108              105.656854        1.06290085103702       0.116675314960463      -0.799996869480798
136                     100                     108              102.828427       0.638276013960271      -0.116949534552203    -0.00241194666707633
137                     100                     108                     100        1.06061044910772       0.114266039512168       0.803915653784496
138                     102                     110              105.656854      -0.589685275840923      -0.155749911617745      -0.378993330422401
139                     102                     110              102.828427       0.138588767094226       0.156422178012291       0.005225374148066
140                     102                     110                     100      -0.583741657266373      -0.150586394789905       0.370606130588346
141                     104                     108              105.656854       0.337946928516615       0.189408127340128      -0.371296805025561
142                     104                     108              102.828427      -0.266915219143036      -0.187701681185228    -0.00463943194673845
143                     104                     108                     100       0.334705752843633       0.182172040243228       0.378762278204754
144                     106                     110              105.656854      -0.297092008623654      -0.218577176826051      -0.505513753991381
145                     106                     110              102.828427       0.282961256194032       0.210344648914442      0.0107835120575753
146                     106                     110                     100      -0.288462232904738      -0.199405884204298       0.485501835089965
147                     108                     108              105.656854       0.221630756494416       0.249727663128257      -0.359477115869984
148                     108                     108              102.828427        -0.2287928194382      -0.244037201925609    -0.00453400975838348
149                     108                     108                     100       0.227973025636544       0.235746351431594       0.367973678444726
150                     110                     110              105.656854      -0.182042031910623      -0.255049185538637      -0.488252744569367
151                     110                     110              102.828427       0.216201627535633        0.24284818850421     0.00417915576173412
152                     110                     110                     100      -0.221745445788508       -0.23244915405493       0.475356307667453
153                     112                     108              105.656854       0.177220017284652       0.256521777081091      -0.392894255165119
154                     112                     108              102.828427      -0.198477617589221      -0.269172082412083      0.0080239906461542
155                     112                     108                     100        0.20127323715283       0.267190678461237        0.37804269936701
156                     114                     110              105.656854      -0.180023295713162      -0.187507886318112      -0.391922543629115
157                     114                     110              102.828427       0.209336734701448       0.246171475614288     -0.0259972449136003
158                     114                     110                     100      -0.213399450509364      -0.249140545929036       0.469716122793842
159                     116                     108              105.656854       0.220264792066496       0.251871971613389      -0.423517690315957
160                     116                     108              102.828427      -0.226115021251981      -0.282021973206278       0.018238099627268
161                     116                     108                     100       0.220188642800548       0.285985783836328       0.389130509764712
162                     118                     110              105.656854      -0.282991905961674      -0.198779626321554      -0.374876928302075
163                     118                     110              102.828427       0.266093529487556       0.257532096830581     -0.0258961239617128
164                     118                     110                     100      -0.249299882307679      -0.260113972490936       0.452335839463637
165                     120                     108              105.656854        0.29778327242039        0.29028353168775      -0.427599340534514
166                     120                     108              102.828427      -0.289718364062079      -0.303867096059142     0.00796672916636727
167                     120                     108                     100       0.273781322395603       0.300786158662536           0.41286789382
168                     122                     110              105.656854      -0.354210671600928       -0.28869609848361      -0.431900350470214
169                     122                     110              102.828427       0.333372388986495        0.27744241059666     0.00422624752665739
170                     122                     110                     100      -0.315006935110677      -0.265947267819806       0.418916845278447
171                     124                     108              105.656854       0.375201214500392       0.319270049115699      -0.431870577665103
172                     124                     108              102.828427      -0.368148775807761      -0.315925787775175    -0.00450970526985343
173                     124                     108                     100       0.368945164239714       0.305377099353517       0.440301462103773
174                     126                     110              105.656854      -0.438387673048805      -0.274317482590641      -0.434018170054479
175                     126                     110              102.828427       0.380671792839927       0.268045273885743      0.0107017877284272
176                     126                     110                     100      -0.446966154265366      -0.255315500966664       0.414205474559429
177                     128                     108              105.656854       0.688585125824235       0.293477291410234      -0.326602733905279
178                     128                     108              102.828427      -0.246859410044202      -0.295207672168719    -0.00460115647354956
179                     128                     108                     100       0.691798667815174       0.286304615538213       0.334003832061217
180                     130                     110              105.656854       -1.17981539418936      -0.228080883599772      -0.838961350354027
181                     130                     110              102.828427      -0.512691843314052       0.231163386622571     0.00518246884735466
182                     130                     110                     100       -1.18570431888559      -0.222960008478776        0.83064394149876
183                     100                     112              105.656854        1.11834441997511        0.13829185079735      -0.806445157549814
184                     100                     112              102.828427       0.583397148094781      -0.140225456456435    -0.00438906139178921
185                     100                     112                     100        1.11277544827819       0.135863814930738       0.813512609673079
186                     102                     114              105.656854      -0.639136891936473      -0.170857321460867      -0.371475821503794
187                     102                     114              102.828427       0.185166532846394       0.173281328185718     0.00868864916724731
188                     102                     114                     100      -0.626667873695442      -0.167823537674418       0.357408202888248
189                     104                     112              105.656854       0.401048147207285       0.187932638958617      -0.374996205502214
190                     104                     112              102.828427      -0.322147283237835      -0.185895309496558       -0.01162282159419
191                     104                     112                     100       0.384911706068254       0.177680145977035       0.395008372317001
192                     106                     114              105.656854      -0.356356598349526      -0.210314777828982      -0.517072765571414
193                     106                     114              102.828427       0.322037663598119       0.208390112670204      0.0232018389255225
194                     106                     114                     100       -0.32256959064206      -0.199853294728015       0.466530931603752
195                     108                     112              105.656854       0.279841674275179       0.258249516380417      -0.313533596770642
196                     108                     112              102.828427      -0.262295429609667      -0.223745421273795     -0.0209267497745277
197                     108                     112                     100       0.261359717438489       0.211082960438584       0.389154931032742
198                     110                     114              105.656854      -0.153933963212624      -0.209844271956905      -0.733228453926521
199                     110                     114              102.828427       0.223901998866376       0.226409158389829      0.0162367168399816
200                     110                     114                     100      -0.239484348446725      -0.220120628292035       0.456469255068143
201                     112                     112              105.656854       0.102029279075145       0.228737557841556      -0.431090865148054