ITEM: TIMESTEP
0
ITEM: NUMBER OF ATOMS
422
ITEM: BOX BOUNDS ff ff ff
0.0000000000000000e+00 2.3200000000000000e+02
0.0000000000000000e+00 2.3200000000000000e+02
0.0000000000000000e+00 2.3200000000000000e+02
ITEM: ATOMS id xu yu zu fx fy fz
1        113.645932193839        115.983520815677              108.656854     -0.0015165050251507   -0.000512066306696045      0.0164081633021551
2        119.327484840071        115.989226241634              108.656854    -0.00052276960356055    -0.00109721742444821     -0.0013865598115451
3        117.902344993917        115.987795112765              108.656854     0.00217690076539519      0.0034639174443958      0.0183251590998109
4        115.071072038949        115.984951942936              108.656854      0.0061407336818533     0.00325446091505186     0.00615932477294624
5        117.201075167769        114.749724850164              108.656854     -0.0226792063294591      0.0294427491621567      0.0854210689856225
6        115.774826990867        114.748292608712              108.656854      0.0114807983317984     0.00898566605487511      0.0145879116627008
7        115.772341865028        117.223022205388              108.656854      0.0112824764108798    -0.00126610453566789      0.0137554039251864
8        117.198590041422        117.224454446583              108.656854     -0.0220682021771849     -0.0219214842268421      0.0824302750520728
9        115.017756920757        113.548446241175              108.656854      0.0385132762745523     -0.0271088365027656      0.0898749770837283
10        117.960553482731        113.551401403886              108.656854     -0.0172566377396216     -0.0416896028700734       0.191226368989582
11        115.012863550773        118.421345651893              108.656854      0.0393087413868162     0.00753871157243076      0.0942038398420235
12        117.955660110655        118.424300814179              108.656854     -0.0171672271503355       0.021988366012654       0.195725679168555
13        113.627311260236        113.562444587898              108.656854     -0.0128814248374958     -0.0391775585559947       0.171848698702359
14        113.622448808114        118.404554762274              108.656854     -0.0136348012783774      0.0215142999824311       0.176282660502759
15        119.350968226168        113.568192293572              108.656854     0.00322832677251079     -0.0212023130936106      0.0506614759854813
16        119.346105771496         118.41030247058              108.656854      0.0043269354326067     0.00556592975376021      0.0534258669605453
17        112.926795838139         117.19431994364              108.656854     -0.0190728831088994    -0.00892112909300504      0.0552877966940746
18         112.92922905874        114.771279815063              108.656854      -0.020057892865099      0.0183707028006122      0.0581628198623323
19        120.046621196692        114.778427112272              108.656854     0.00474811540113381     0.00422755017019948       0.010794756476623
20        120.044187975028         117.20146724296              108.656854     0.00464528123627485     0.00481944763392806      0.0100734824076274
21        121.455135022624        114.824435085822              108.656854       0.126988266065038       0.137252856134046      0.0495409940361417
22        121.452791362251        117.158288229576              108.656854       0.124870480427587      -0.037562369193327      0.0439623329552881
23        111.520625673161        114.814458829493              108.656854     -0.0118723964805932       0.115022084801617      0.0477846930456897
24        111.518282013145        117.148311972274              108.656854     -0.0114470366777679    -0.00751527389458856      0.0439909953710446
25        122.086726460739        115.991997078118              108.656854     -0.0400961232277414     -0.0258653553993635     0.00988377451771987
26        110.886690574472        115.980749978664              108.656854     0.00152386850134154     -0.0277308958008185     -0.0275321215201916
27        122.109196045824        118.185922140926              108.656854      -0.123684117525009     -0.0432491750699673       0.203658675010149
28          122.1136022867        113.798121569695              108.656854      -0.130104166829127     -0.0794576869386968        0.19257715709019
29        110.859814750727        118.174625487296              108.656854      0.0561686000320658     -0.0567480598490024      0.0979541568086037
30         110.86422099026         113.78682491673              108.656854      0.0587104908178769     -0.0784063716790059       0.084630758866721
31        113.099866822243        112.615454800093              108.656854       -0.01385943888398       0.025141522271068     0.00264948815291151
32        113.093103500599        119.350483321209              108.656854     -0.0135658358246402      0.0170830633693655    -0.00329404633232598
33        119.880313532952        112.622263734631              108.656854       0.068509595680442      0.0275383706680516      0.0115991911699979
34        119.873550207142        119.357292260389              108.656854      0.0659591437450762      0.0129734921936943     0.00582574362263045
35        115.462286572867         112.56896056388              108.656854     0.00689620635339833      0.0157226863148949     0.00465455574116634
36        115.455425108682        119.401722146141              108.656854     0.00648860426923383      0.0118715253808133    0.000560121283363113
37        117.517991924022        112.571024909739              108.656854      0.0190418338840671      0.0136340436622927    -0.00676871589256844
38        117.511130457531        119.403786490585              108.656854      0.0181225301511468      0.0136474003220713     -0.0104363866534603
39                     100                     100              105.656854       0.212261554810382       0.213981275922964      -0.975684524318532
40                     100                     100              102.828427       0.431931216406138       0.430415667836382   -0.000375514515247874
41                     100                     100                     100       0.212209948173316       0.213460748929057       0.976322826726958
42                     102                     102              105.656854      -0.344674110066289      -0.347586598716023      -0.277969545617394
43                     102                     102              102.828427     -0.0507477597539314     -0.0482859895075082    0.000688867750788293
44                     102                     102                     100      -0.344596204547687      -0.346516872102971       0.276837125177044
45                     104                     100              105.656854      0.0959116290103776       0.960201128845168      -0.808919264605322
46                     104                     100              102.828427     -0.0638596242399805       0.726582115254621   -0.000311352429052061
47                     104                     100                     100      0.0962146004805863       0.959540182009398       0.809416782374718
48                     106                     102              105.656854      -0.149353264414483      -0.515195059245669      -0.381517038432425
49                     106                     102              102.828427       0.142373128029409      0.0667702954275091    0.000472140246507202
50                     106                     102                     100      -0.150203166313013      -0.513927981037107       0.380802522429291
51                     108                     100              105.656854       0.109582829794539        1.06037822169329      -0.801844437005739
52                     108                     100              102.828427      -0.111542431562855       0.639649447615044    0.000158155847988391
53                     108                     100                     100       0.110572470202402        1.06018661413169       0.801529827751185
54                     110                     102              105.656854       -0.14306260156519      -0.582457388669576      -0.373995243052776
55                     110                     102              102.828427       0.147805843237731       0.135196037037173   -0.000746070268421806
56                     110                     102                     100       -0.14539750657464      -0.582834194124976       0.375299257606697
57                     112                     100              105.656854       0.131416049971748        1.10869170041167      -0.810604839280338
58                     112                     100              102.828427        -0.1352388070717       0.589270125411652      0.0010650826296742
59                     112                     100                     100       0.132660894139032        1.10996075048048       0.808787945335671
60                     114                     102              105.656854       -0.16312635998404      -0.619036309942487      -0.361463456627309
61                     114                     102              102.828427       0.168226892948372       0.174951608191242    -0.00251982250788044
62                     114                     102                     100      -0.164924379296902      -0.622734862289499       0.365634400036641
63                     116                     100              105.656854        0.16616927441702        1.14378699954725      -0.821240464396807
64                     116                     100              102.828427      -0.170444881886201       0.552378523193126     0.00167959818967347
65                     116                     100                     100       0.166358382146417        1.14619326663885       0.818420818542683
66                     118                     102              105.656854      -0.208920188779968      -0.650364174121715      -0.347801649870085
67                     118                     102              102.828427       0.213934357644246       0.207639476015667    -0.00280001359825625
68                     118                     102                     100       -0.20775547038924      -0.654624112724293       0.352422593139513
69                     120                     100              105.656854       0.223064957590033        1.18205246312141      -0.835333915402438
70                     120                     100              102.828427      -0.228516284479507        0.51327924532603      0.0012865095142213
71                     120                     100                     100       0.221964137913054        1.18372090304245       0.833154760870131
72                     122                     102              105.656854      -0.288908446267373      -0.687293114866568      -0.330114485215074
73                     122                     102              102.828427       0.293642374263397       0.243853513313464    -0.00120392009438009
74                     122                     102                     100      -0.286407145137018       -0.68846835339644        0.33216227754746
75                     124                     100              105.656854       0.326522417154385        1.23641811506077      -0.852177526856178
76                     124                     100              102.828427      -0.323119965509274       0.459729034864842    0.000359337084697342
77                     124                     100                     100       0.325380991282181        1.23651444038434       0.851525969649426
78                     126                     102              105.656854      -0.462074246162219      -0.727545181985486      -0.331965045416316
79                     126                     102              102.828427       0.397516519357141       0.281569573672318    0.000274807412363664
80                     126                     102                     100      -0.460850203197683      -0.726453474523424       0.331585979713789
81                     128                     100              105.656854       0.708458890460222         1.3406827565003      -0.754757757177604
82                     128                     100              102.828427      -0.281081170198749       0.396118698606554   -0.000239282189022717
83                     128                     100                     100       0.708006261616369         1.3400576229116       0.755125842076143
84                     130                     102              105.656854       -1.34080090161532       -0.70884852983719      -0.755428541441875
85                     130                     102              102.828427      -0.395684197741339       0.281078989031718    0.000687779083435783
86                     130                     102                     100       -1.34073797767459      -0.707669486188171       0.754312619195308
87                     100                     104              105.656854        0.95922882274412      0.0999219184882473      -0.808463412687691
88                     100                     104              102.828427       0.727540979362953     -0.0671649637974325    -0.00100234354205321
89                     100                     104                     100       0.958650736772617      0.0987056603948597       0.810130444358077
90                     102                     106              105.656854      -0.514052633009495      -0.156815409476021      -0.382678748625746
91                     102                     106              102.828427      0.0654798205814964       0.148058974893677     0.00205978175172871
92                     102                     106                     100      -0.512665928989755      -0.154098555679035       0.379356858107944
93                     104                     104              105.656854       0.247569136256325       0.252921479523895      -0.388513684479017
94                     104                     104              102.828427      -0.180252012886121      -0.184481976848169    -0.00134381813663744
95                     104                     104                     100       0.247504040560141       0.250540870792042       0.390651458084369
96                     106                     106              105.656854      -0.234069129504198       -0.24506873661437      -0.504697344287935
97                     106                     106              102.828427       0.225840998368851       0.233566871269546     0.00275948087523618
98                     106                     106                     100      -0.234408428928346      -0.239296394080087       0.500318734701711
99                     108                     104              105.656854       0.173487605532096       0.339310739105651      -0.375019971185974
100                     108                     104              102.828427      -0.177325273594461      -0.269215060298077   -0.000556202784792469
101                     108                     104                     100       0.176109804072554        0.33698359473239       0.375812082879112
102                     110                     106              105.656854      -0.181981404894664      -0.295114101541479      -0.490877783922201
103                     110                     106              102.828427       0.191975257928042       0.286593031914922   -0.000303956733059112
104                     110                     106                     100      -0.190649108319759      -0.292218045407123       0.491429496615291
105                     112                     104              105.656854       0.166068384109145       0.380372973156293      -0.390545192215037
106                     112                     104              102.828427      -0.173458046284386      -0.315011583275659     0.00267104595079476
107                     112                     104                     100         0.1712862619882       0.383661676097409       0.386098882664578
108                     114                     106              105.656854      -0.185299016711347       -0.30859774859288      -0.467428725575878
109                     114                     106              102.828427       0.195777317634408       0.312159736501679    -0.00808133042600034
110                     114                     106                     100      -0.194189721216225      -0.322427516462556       0.481312795830117
111                     116                     104              105.656854       0.196751676575555       0.404694919897644      -0.406503463806728
112                     116                     104              102.828427      -0.202439115839975      -0.343794707637079     0.00540316314100908
113                     116                     104                     100       0.197625946498025       0.413718675689736       0.397637208873513
114                     118                     106              105.656854      -0.239399378617506      -0.327064086199298        -0.4499893995668
115                     118                     106              102.828427       0.242355860417461        0.33330849811054    -0.00943460380261939
116                     118                     106                     100      -0.233576304808353      -0.343920877747609       0.466174930050465
117                     120                     104              105.656854       0.260482720599866       0.434323975002697      -0.422139264461051
118                     120                     104              102.828427      -0.264850306414042      -0.371962550065912     0.00361855154797658
119                     120                     104                     100        0.25564411951311       0.439556764944645       0.416157424946061
120                     122                     106              105.656854      -0.320373061557665      -0.360571415999733      -0.437234238512795
121                     122                     106              102.828427       0.320804347105125       0.356535439056119    -0.00208952148470106
122                     122                     106                     100      -0.309813286898255      -0.361134134837631        0.44080945792129
123                     124                     104              105.656854       0.369074249063308       0.463246089651823      -0.438787104404645
124                     124                     104              102.828427      -0.363125993774251      -0.397470222422778    3.23853180999906e-05
125                     124                     104                     100       0.365507333222121       0.461716481831783       0.438621532116651
126                     126                     106              105.656854      -0.467396952154187      -0.369527779138043      -0.441641634558412
127                     126                     106              102.828427       0.401960698107019       0.361557314991392     0.00253997310385927
128                     126                     106                     100      -0.465625814760967      -0.363311746122768       0.437594592233275
129                     128                     104              105.656854       0.728463335945146        0.46256578662547      -0.330624957050434
130                     128                     104              102.828427      -0.283015408847809      -0.397148628815835    -0.00131208263322013
131                     128                     104                     100       0.728114308048939        0.45994715427527        0.33268759475848
132                     130                     106              105.656854       -1.23681608469279      -0.328858654343089      -0.853793780343651
133                     130                     106              102.828427      -0.458518439336438       0.324182295869168     0.00230574825841575
134                     130                     106                     100       -1.23814350835708      -0.325490334665796       0.850105541627356
135                     100                     108              105.656854        1.06299107737347        0.11629509688089      -0.800121397351809
136                     100                     108              102.828427       0.638126977036319      -0.116724173384527    -0.00228167682729857
137                     100                     108                     100        1.06076703507558       0.114162972370868       0.803844211799776
138                     102                     110              105.656854      -0.589680228846352      -0.154836800417533      -0.378545135312727
139                     102                     110              102.828427       0.138862295222904       0.155984178686366     0.00486034212664953
140                     102                     110                     100       -0.58404006599126       -0.15043045486395       0.370748037603735
141                     104                     108              105.656854       0.338781935513055       0.188764262495602      -0.371484743148655
142                     104                     108              102.828427      -0.267584439242123      -0.187495939533901    -0.00457955110478695
143                     104                     108                     100       0.335126483472269       0.182162056693564       0.378835482160583
144                     106                     110              105.656854      -0.299493480117124      -0.216407403783351      -0.504484478056052
145                     106                     110              102.828427       0.284580472333865       0.209994992128766      0.0106892554289058
146                     106                     110                     100       -0.28923774788354      -0.199461049580087       0.485222973041429
147                     108                     108              105.656854       0.224783989667493       0.251225729510872      -0.358430145852651
148                     108                     108              102.828427       -0.23012766481261      -0.244903409992076    -0.00554056291332366
149                     108                     108                     100       0.228440544297902       0.236179664737998       0.368628542811207
150                     110                     110              105.656854      -0.190770007212698         -0.264105495472      -0.497018765357397
151                     110                     110              102.828427       0.217969113758812       0.245011265850834      0.0077150912116512
152                     110                     110                     100      -0.222041952490215      -0.233171841656781       0.473905272114197
153                     112                     108              105.656854       0.174513800881154       0.262449095780551      -0.390039359643601
154                     112                     108              102.828427      -0.197247953134877      -0.271292142928557     0.00610658471729648
155                     112                     108                     100       0.200655557840902       0.267924082793335       0.378949220632274
156                     114                     110              105.656854      -0.167056876215636      -0.191491469693125       -0.39124118043567
157                     114                     110              102.828427       0.205123316414503       0.248146454561032      -0.024039695892549
158                     114                     110                     100      -0.211789881301175      -0.249753358696525       0.468903600674732
159                     116                     108              105.656854       0.214500672789217       0.250054100386839      -0.425656399755946
160                     116                     108              102.828427      -0.223180297270608      -0.281731711122841      0.0192089142066043
161                     116                     108                     100       0.218861738970725        0.28597153668096       0.388797866564991
162                     118                     110              105.656854      -0.274856038794186      -0.190014665341133      -0.362416099796477
163                     118                     110              102.828427       0.262845001975734       0.255958888894516     -0.0296568192693172
164                     118                     110                     100      -0.247930903941359       -0.25968998400828       0.453714611067114
165                     120                     108              105.656854       0.298679393913336       0.283782347239256      -0.431840333079479
166                     120                     108              102.828427      -0.289714511624444      -0.301675899196807      0.0105715500153531
167                     120                     108                     100       0.273562234324183       0.300074080238237       0.411668593343384
168                     122                     110              105.656854      -0.368257270127516      -0.281064894113684      -0.425299232056873
169                     122                     110              102.828427       0.336321313915318       0.275423962545415     0.00140285057071959
170                     122                     110                     100       -0.31568550308876       -0.26524541889559       0.420331371898989
171                     124                     108              105.656854       0.379082134794307       0.319929603866863      -0.431423716745748
172                     124                     108              102.828427      -0.370018863018242       -0.31552057554063    -0.00421381592807181
173                     124                     108                     100       0.369687158717951       0.305030119536931       0.439857818794912
174                     126                     110              105.656854      -0.439297270469393      -0.278092935977939      -0.437683388537326
175                     126                     110              102.828427       0.382253745559144       0.268558414578312      0.0119665631748365
176                     126                     110                     100      -0.447860205015837      -0.255234415802309       0.414128937046549
177                     128                     108              105.656854        0.68879640050845       0.294915668272206      -0.325767060267612
178                     128                     108              102.828427      -0.247371612976362       -0.29569685120179    -0.00519087654055312
179                     128                     108                     100       0.692230409270831       0.286385999939127        0.33419825585761
180                     130                     110              105.656854        -1.1790209806718       -0.22919554988088      -0.839909182044097
181                     130                     110              102.828427      -0.512708098714079       0.231630870195121     0.00598833070924179
182                     130                     110                     100       -1.18593931720197      -0.223089439988345       0.830262451877442
183                     100                     112              105.656854        1.11789994115007        0.13769369561883      -0.806855912078448
184                     100                     112              102.828427       0.583466040712446      -0.139875681030398    -0.00396955417560035
185                     100                     112                     100        1.11288867099606       0.135699304379841       0.813267912658886
186                     102                     114              105.656854      -0.637873409626713       -0.16996906731536      -0.370236820413071
187                     102                     114              102.828427       0.185072762678759       0.172830504222018     0.00770530575280719
188                     102                     114                     100      -0.626934055822461      -0.167640365011299       0.357832451638138
189                     104                     112              105.656854       0.400352160240608       0.185791739277093      -0.376924146203538
190                     104                     112              102.828427      -0.322794227035289      -0.185171568211229     -0.0106304164782381
191                     104                     112                     100       0.385516385999731       0.177495762600884       0.394797346535401
192                     106                     114              105.656854      -0.355519351750575      -0.208117555009109      -0.509495497727866
193                     106                     114              102.828427       0.324146540103646       0.207733985730008      0.0212685443889233
194                     106                     114                     100      -0.323738557080055      -0.199723865689963         0.4665485790162
195                     108                     112              105.656854       0.289526201940993       0.250253368283323      -0.321297508282217
196                     108                     112              102.828427      -0.266216914337571      -0.223720705788857     -0.0217813575578029
197                     108                     112                     100       0.262534846573083       0.211306491249439       0.390110198253768
198                     110                     114              105.656854      -0.199563505461912      -0.199767992820063      -0.685612474615697
199                     110                     114              102.828427       0.228772666871722        0.22731236493533      0.0220238281419227
200                     110                     114                     100      -0.240383003001553      -0.220457278169973       0.454225718557893
201                     112                     112              105.656854      0.0901540506731782       0.246959489216405      -0.390281950963371