ITEM: TIMESTEP
0
ITEM: NUMBER OF ATOMS
422
ITEM: BOX BOUNDS pp pp pp
0.0000000000000000e+00 3.2000000000000000e+01
0.0000000000000000e+00 3.2000000000000000e+01
0.0000000000000000e+00 3.2000000000000000e+01
ITEM: ATOMS id xu yu zu fx fy fz
1        12.0459321938386        15.9835208156773                 8.65685   -0.000280788842145644    0.000101438508057164    -0.00439508437072507
2        17.7274848400711        15.9892262416344                 8.65685    -0.00303708833214375    0.000542591599306835      0.0175055235821652
3         16.302344993917         15.987795112765                 8.65685     -0.0018690283687634    0.000102269991916815    -0.00358198965004824
4         13.471072038949        15.9849519429358                 8.65685    -0.00509341156264898    0.000666623248827339      0.0139510429387774
5        15.6010751677692        14.7497248501637                 8.65685       0.014395139501364     0.00866681153672234      0.0197111232626345
6        14.1748269908674        14.7482926087119                 8.65685     0.00931844822214251      0.0399320980459048       0.135953374414579
7        14.1723418650276        17.2230222053877                 8.65685     0.00894138768559424     -0.0403505322111308       0.131895877113251
8        15.5985900414216        17.2244544465825                 8.65685      0.0141208850128202    -0.00876228077492247      0.0190752106757216
9        13.4177569207574        13.5484462411751                 8.65685     -0.0320236075957645     -0.0248238254209697        0.14059681935465
10        16.3605534827313        13.5514014038861                 8.65685     -0.0164228539519499     -0.0062465226749034      0.0254384517061868
11        13.4128635507729         18.421345651893                 8.65685     -0.0327160596430149      0.0234636694488665       0.142656456783261
12        16.3556601106552        18.4243008141789                 8.65685     -0.0164264986279588     0.00595062119227192       0.025666464274842
13        12.0273112602358        13.5624445878976                 8.65685      -0.001278662273229    -0.00449466714234968      0.0154567145550904
14        12.0224488081137        18.4045547622743                 8.65685    -0.00106950877790627     0.00423583416384146      0.0159191893856124
15         17.750968226168        13.5681922935721                 8.65685     -0.0164738369155081     -0.0285839710872975       0.172814136303799
16        17.7461057714963        18.4103024705805                 8.65685     -0.0169629651072625      0.0274284291070623       0.174711403796611
17         11.326795838139        17.1943199436399                 8.65685      0.0215971820027076      -0.013778482263671      0.0346879755891344
18        11.3292290587396        14.7712798150634                 8.65685      0.0222904198195898      0.0136117270313107      0.0361181034619958
19        18.4466211966922        14.7784271122721                 8.65685      0.0208114353723325      0.0362832144041821        0.11672185629595
20        18.4441879750283        17.2014672429596                 8.65685      0.0203171010894575     -0.0365292665663435       0.114286898463276
21        19.8551350226241        14.8244350858224                 8.65685     0.00496176831787032     0.00632049207588557     0.00962129771028184
22        19.8527913622507        17.1582882295758                 8.65685     0.00494900390500563     -0.0063328569909572      0.0093011855638495
23        9.92062567316109        14.8144588294926                 8.65685    -0.00402499193396779       0.041326847243094       0.128558019771099
24        9.91828201314539        17.1483119722736                 8.65685    -0.00398465837526208     -0.0415310227333031       0.122995334366276
25        20.4867264607395        15.9919970781177                 8.65685   -0.000938744181001513    3.38493052567148e-05    -0.00921835119219175
26         9.2866905744716        15.9807499786644                 8.65685    -0.00203119547578904     0.00029445901533708     -0.0042077975737242
27         20.509196045824        18.1859221409264                 8.65685     -0.0102164433226409     0.00140431077470274     0.00838720968782303
28        20.5136022867001        13.7981215696947                 8.65685      -0.010255153889658     -0.0015299740302979     0.00846248688785863
29        9.25981475072747        18.1746254872963                 8.65685     -0.0164396416886862     0.00385282179002039      0.0494266444849528
30        9.26422099026049        13.7868249167297                 8.65685     -0.0162517369830537    -0.00467857506442644      0.0490793320488224
31        11.4998668222426        12.6154548000933                 8.65685    0.000467737185133038    -0.00038707434808826    -0.00949313483469413
32        11.4931035005993        19.3504833212092                 8.65685     0.00052997839137843    0.000424327916220947    -0.00938981437741075
33        18.2803135329519        12.6222637346313                 8.65685    0.000549525995215827    -0.00305383119977821    -0.00444436554740799
34        18.2735502071424         19.357292260389                 8.65685    0.000563499145309357     0.00314991209833404    -0.00416440151253649
35        13.8622865728669        12.5689605638796                 8.65685    -0.00024966584054037    -0.00294536747066441    -0.00483388246931391
36         13.855425108682        19.4017221461408                 8.65685   -0.000280495042600915     0.00307744098419716    -0.00447879454574526
37        15.9179919240215        12.5710249097393                 8.65685    6.00412713261557e-05    1.58239614708348e-05     -0.0101551614705247
38         15.911130457531        19.4037864905846                 8.65685    7.21606878293368e-05   -8.23875670105667e-06     -0.0101304625244051
39                       0                       0                5.656854                       0                       0                       0
40                       0                       0                2.828427                       0                       0                       0
41                       0                       0                       0                       0                       0                       0
42                       2                       2                5.656854    1.69312995321558e-09    2.51066083901972e-09    6.53714634860299e-10
43                       2                       2                2.828427                       0                       0                       0
44                       2                       2                       0                       0                       0                       0
45                       4                       0                5.656854    3.36667254318146e-11    5.66304793163255e-11    1.34669113495459e-11
46                       4                       0                2.828427                       0                       0                       0
47                       4                       0                       0                       0                       0                       0
48                       6                       2                5.656854    3.06970780440458e-08    7.20994252580543e-08    1.87461480529579e-08
49                       6                       2                2.828427    1.16394084285133e-09    2.71334177080742e-09    1.37843681945855e-09
50                       6                       2                       0    3.50010691978044e-10    9.32207653589211e-10    7.15526782506714e-10
51                       8                       0                5.656854    1.02676798591806e-09    8.40506539118971e-11    8.49072213668039e-10
52                       8                       0                2.828427    4.81799900153833e-10    3.63740221762167e-11    8.03113148209083e-10
53                       8                       0                       0                       0                       0                       0
54                      10                       2                5.656854     8.5376508924329e-08    4.31101253510826e-07    1.14560754194353e-07
55                      10                       2                2.828427    2.98523464478659e-09    1.52206239162099e-08    7.85372054625372e-09
56                      10                       2                       0    1.35529338854691e-09    6.86523733125501e-09    5.33272478207723e-09
57                      12                       0                5.656854    1.04927518909709e-09    2.51158857553873e-10    2.66414884785627e-09
58                      12                       0                2.828427    1.09367349172823e-09    2.82618506467591e-10    6.17887824102375e-09
59                      12                       0                       0                       0                       0                       0
60                      14                       2                5.656854    2.17279094233262e-08    7.94154494804398e-07    2.13390037934499e-07
61                      14                       2                2.828427    7.52566535119112e-10    2.76635713804793e-08    1.43990646661386e-08
62                      14                       2                       0    4.94057551166557e-10     1.2555691131595e-08    9.81605566917118e-09
63                      16                       0                5.656854   -4.76580593763268e-10     2.6503424018295e-10    3.25864395516338e-09
64                      16                       0                2.828427   -2.44260202013859e-10    1.37550651861007e-09    7.61557103447937e-09
65                      16                       0                       0                       0                       0                       0
66                      18                       2                5.656854    -7.0998529445132e-08    6.36730872918579e-07    1.70467587411669e-07
67                      18                       2                2.828427   -2.55580104298286e-09     2.2374876429581e-08    1.16003756045782e-08
68                      18                       2                       0   -7.62629671022017e-10    9.20217508254573e-09    7.18600535862915e-09
69                      20                       0                5.656854   -1.29520632807405e-09    1.14075508826108e-10    1.60393100378451e-09
70                      20                       0                2.828427   -1.22844323508006e-09    7.44479058653993e-10    3.27946211147968e-09
71                      20                       0                       0                       0                       0                       0
72                      22                       2                5.656854   -5.92724051312889e-08    1.84547073249904e-07    4.84570357191709e-08
73                      22                       2                2.828427   -2.18236120537023e-09    6.84169912119653e-09    3.49258689244855e-09
74                      22                       2                       0   -5.89956533134964e-10    2.04925331555055e-09     1.6021574654735e-09
75                      24                       0                5.656854   -2.90903356916497e-10    1.15604522800794e-11    1.90522542050372e-10
76                      24                       0                2.828427                       0                       0                       0
77                      24                       0                       0                       0                       0                       0
78                      26                       2                5.656854   -8.09301291863096e-09    1.43689252075623e-08    3.71119735881599e-09
79                      26                       2                2.828427   -2.32282483027443e-10    4.29283692601602e-10    2.18894916327585e-10
80                      26                       2                       0                       0                       0                       0
81                      28                       0                5.656854                       0                       0                       0
82                      28                       0                2.828427                       0                       0                       0
83                      28                       0                       0                       0                       0                       0
84                      30                       2                5.656854                       0                       0                       0
85                      30                       2                2.828427                       0                       0                       0
86                      30                       2                       0                       0                       0                       0
87                       0                       4                5.656854    7.10553614361579e-10    7.30004043749544e-10    2.21843584420268e-10
88                       0                       4                2.828427    6.95252570987627e-10    7.34472460481622e-10    4.37406024728203e-10
89                       0                       4                       0                       0                       0                       0
90                       2                       6                5.656854     3.0070613102883e-07    3.07773949911794e-07    1.14859974098275e-07
91                       2                       6                2.828427    1.04192466945911e-08    1.05880887488844e-08    7.66881586971262e-09
92                       2                       6                       0    4.04174289391863e-09    4.16814880004198e-09    4.56008463741489e-09
93                       4                       4                5.656854    2.53633974226223e-08    3.96140389556929e-08    1.21192257728997e-08
94                       4                       4                2.828427    2.97958282421356e-08     4.6114309940045e-08    2.74121225196034e-08
95                       4                       4                       0    2.70535898743247e-10    4.36927160883108e-10    3.99321869309025e-10
96                       6                       6                5.656854    6.60659308531671e-06    1.15511688871732e-05    4.45812435179539e-06
97                       6                       6                2.828427    1.67517933642702e-07    2.87892956754395e-07    2.14027286637534e-07
98                       6                       6                       0    6.05457939820722e-08    1.02338030752919e-07    1.12243786868781e-07
99                       8                       4                5.656854    1.91296661066326e-07    5.45474561073584e-07    1.72601049142971e-07
100                       8                       4                2.828427    1.86313899013429e-07    5.25358994946986e-07    3.20512844555507e-07
101                       8                       4                       0    2.33869334262004e-09    6.73412017806326e-09    6.10018449211078e-09
102                      10                       6                5.656854    2.52156871336609e-05    0.000100185521645261     4.0830593117122e-05
103                      10                       6                2.828427    4.98843054943181e-07    1.93341719561166e-06    1.50341902554313e-06
104                      10                       6                       0    1.45418103439043e-07    5.46157252287299e-07    6.18835490654682e-07
105                      12                       4                5.656854    2.06879459741567e-07    1.93084616563201e-06    6.27517189337401e-07
106                      12                       4                2.828427    1.88288483812299e-07      1.665695394883e-06    1.04117883989979e-06
107                      12                       4                       0    2.30656205878927e-09    1.98296434067313e-08    1.82741363886878e-08
108                      14                       6                5.656854    4.68445005274729e-06    0.000194209070261825    8.09667613686133e-05
109                      14                       6                2.828427    1.02922773790406e-07    3.51872426399995e-06    2.79578821676406e-06
110                      14                       6                       0    3.26204256042218e-08    9.37280144085252e-07    1.08271014318558e-06
111                      16                       4                5.656854   -8.02192697293107e-08    2.27964017148147e-06    7.44102109761506e-07
112                      16                       4                2.828427   -7.50677519292771e-08    1.95339868805266e-06     1.2263507791668e-06
113                      16                       4                       0   -9.19674799501918e-10    2.32528947671964e-08    2.14880812512082e-08
114                      18                       6                5.656854   -2.01503402971731e-05    0.000157471624928127    6.50812647658518e-05
115                      18                       6                2.828427   -3.96298710422717e-07    2.88189069340133e-06     2.2705257307033e-06
116                      18                       6                       0   -1.15379433982292e-07    7.76525126205761e-07     8.9002027680216e-07
117                      20                       4                5.656854   -2.64918405385017e-07    1.12506344826563e-06     3.6118960539791e-07
118                      20                       4                2.828427   -2.42081622630257e-07    1.01242670112947e-06    6.25793445098722e-07
119                      20                       4                       0   -3.03645721880835e-09    1.26286584599437e-08    1.15109160088722e-08
120                      22                       6                5.656854    -1.5252656593829e-05    3.60438534969684e-05     1.4242653640276e-05
121                      22                       6                2.828427    -3.4141503324445e-07    7.92449732975196e-07    6.00564902035665e-07
122                      22                       6                       0    -1.1036871306119e-07    2.51310644530927e-07    2.79075796073924e-07
123                      24                       4                5.656854   -7.50110685903857e-08    1.48351858352446e-07    4.59324890530674e-08
124                      24                       4                2.828427   -8.04182359948304e-08     1.5800656165632e-07    9.47120445248381e-08
125                      24                       4                       0   -1.18787616773357e-09    2.29236550071654e-09    2.05025698074251e-09
126                      26                       6                5.656854   -1.41550297281751e-06    1.79657975213033e-06    6.78026352534818e-07
127                      26                       6                2.828427   -4.28050575933272e-08    5.38197352311619e-08    3.92236079400817e-08
128                      26                       6                       0   -1.83490453240823e-08    2.26601830001164e-08    2.46181499266266e-08
129                      28                       4                5.656854   -4.26262140573088e-09    5.20065554296104e-09    1.57201883549367e-09
130                      28                       4                2.828427   -4.63395339008471e-09    5.75138197298058e-09     3.4067188436659e-09
131                      28                       4                       0                       0                       0                       0
132                      30                       6                5.656854   -2.70949835013543e-08    2.56753721831398e-08     9.5592182192108e-09
133                      30                       6                2.828427   -9.92900900117071e-10    9.88834595263373e-10    7.13627451614016e-10
134                      30                       6                       0                       0                       0                       0
135                       0                       8                5.656854    4.00873064001807e-08    2.88190940810949e-08    1.38178377067183e-08
136                       0                       8                2.828427    4.63173926177587e-08    3.25365683639255e-08    3.01831707273869e-08
137                       0                       8                       0    6.51017073273693e-10    4.35564881169265e-10     5.9699398225419e-10
138                       2                      10                5.656854    1.25310273075927e-05    7.09413788249733e-06    4.91812492985571e-06
139                       2                      10                2.828427    3.00742187956652e-07    1.72004305389063e-07    2.26360911180257e-07
140                       2                      10                       0     1.0471805522667e-07    6.05036291584641e-08    1.15396837660554e-07
141                       4                       8                5.656854    2.91789036872023e-06    3.01538463377632e-06    1.49528029741833e-06
142                       4                       8                2.828427    2.12221209870762e-06    2.16965892021621e-06    2.06370528679742e-06
143                       4                       8                       0    2.17219298920187e-08      2.199529149558e-08    3.06202084735836e-08
144                       6                      10                5.656854    0.000702286476169524    0.000741142890995628    0.000545263415123116
145                       6                      10                2.828427    8.28717742439931e-06    8.51565848362165e-06     1.1784115661473e-05
146                       6                      10                       0    1.56812328263213e-06    1.57266001963091e-06    3.11707927160952e-06
147                       8                       8                5.656854    3.89203615711473e-05    8.10565638580905e-05     4.2742194976689e-05
148                       8                       8                2.828427     1.8203308963314e-05    3.66120874289686e-05    3.66536721571391e-05
149                       8                       8                       0    1.26342352839194e-07    2.44952810728514e-07    3.54992276771498e-07
150                      10                      10                5.656854     0.00336225186210704     0.00900318448224527     0.00742351733316934
151                      10                      10                2.828427    2.65015627688472e-05    6.85018218344741e-05    0.000103668056646101
152                      10                      10                       0    3.60441557207432e-06    8.76553576633017e-06      1.855211151082e-05
153                      12                       8                5.656854    4.44877715531746e-05    0.000364652946642184    0.000207047054142581
154                      12                       8                2.828427    1.75472391753703e-05    0.000127097807097923    0.000134932063041659
155                      12                       8                       0    1.09008946429454e-07    7.02274992577458e-07    1.06493293954147e-06
156                      14                      10                5.656854    0.000214695855793093      0.0155586739286891      0.0136840923285851
157                      14                      10                2.828427    2.85718916485064e-06    0.000114886464894431     0.00018433613569276
158                      14                      10                       0    6.06126620542996e-07     1.3940286169587e-05    3.08470235536992e-05
159                      16                       8                5.656854   -1.10440904070896e-05    0.000417826371241697    0.000239580263145157
160                      16                       8                2.828427   -5.53650198239447e-06    0.000145489029154724       0.000155915155466
161                      16                       8                       0   -4.01132376333157e-08    8.01463618636456e-07    1.22577903295226e-06
162                      18                      10                5.656854    -0.00241641218802129      0.0134790185276337      0.0115955129310408
163                      18                      10                2.828427   -1.87809457565318e-05    9.97324572783422e-05    0.000156817678258282
164                      18                      10                       0   -2.57420193971835e-06    1.20447266276199e-05    2.61927417735429e-05
165                      20                       8                5.656854    -6.2449270960425e-05    0.000195487383889661    0.000107485709751664
166                      20                       8                2.828427   -2.48977141982727e-05     7.5967878995262e-05    7.83909267209031e-05
167                      20                       8                       0   -1.54756629692109e-07    4.52948227510016e-07     6.7125400937736e-07
168                      22                      10                5.656854    -0.00193613032509023     0.00302423337649411     0.00230567053776508
169                      22                      10                2.828427   -1.83780262676378e-05    2.71527251225063e-05    3.87354662882077e-05
170                      22                      10                       0    -2.8985485794025e-06    4.06639298459402e-06    8.26003455672432e-06
171                      24                       8                5.656854   -1.17187037179089e-05    1.61088189226857e-05    8.14188545661633e-06
172                      24                       8                2.828427   -6.90250417412753e-06    9.24479936786526e-06    8.94614102865706e-06
173                      24                       8                       0    -5.8318589211447e-08    7.61886964281769e-08     1.0755872035994e-07
174                      26                      10                5.656854   -9.20991739410118e-05    6.57503672456776e-05    4.67012626795959e-05
175                      26                      10                2.828427   -1.62020469888671e-06    1.16019405161968e-06    1.55678120957288e-06
176                      26                      10                       0   -4.24756793519143e-07    3.04879464527037e-07    5.89102064975095e-07
177                      28                       8                5.656854    -3.1738122072407e-07    2.46989940113769e-07    1.19924132084695e-07
178                      28                       8                2.828427   -3.02785934010373e-07    2.35496299656487e-07    2.19883676639373e-07
179                      28                       8                       0   -3.82308589297054e-09    2.93543306894968e-09    4.10805790291558e-09
180                      30                      10                5.656854   -7.04461178779722e-07    3.82894897165364e-07    2.56845836102553e-07
181                      30                      10                2.828427   -2.30274714795335e-08     1.2772545587068e-08    1.64186396665665e-08
182                      30                      10                       0   -9.39956850788761e-09    4.86863028718683e-09    9.71250507060497e-09
183                       0                      12                5.656854    5.04821823672735e-07    1.58465694105207e-07    1.71408373255533e-07
184                       0                      12                2.828427    4.71539252515176e-07    1.55258698324307e-07    3.15886671010738e-07
185                       0                      12                       0    6.14318314559178e-09    2.00832784586423e-09    6.00343817547086e-09
186                       2                      14                5.656854    8.52540591588745e-05     1.3140521979907e-05    3.35896904415928e-05
187                       2                      14                2.828427     1.6620173944238e-06     2.7561276525711e-07    1.25786297774229e-06
188                       2                      14                       0    4.68575102820228e-07    8.25962608010842e-08    5.18622572390506e-07
189                       4                      12                5.656854    8.90160014588521e-05    3.89645251732465e-05    4.74193645896372e-05
190                       4                      12                2.828427     3.7636097137036e-05    1.71776144413197e-05    3.78979793598681e-05
191                       4                      12                       0    2.41037046513953e-07    1.13446895400301e-07    3.48967383024228e-07
192                       6                      14                5.656854     0.00874553069754811     0.00230926857435519      0.0070071366808954
193                       6                      14                2.828427    6.65981686195499e-05    1.88765336395229e-05     9.8992724331268e-05
194                       6                      14                       0    8.25133754587462e-06    2.51977714005834e-06    1.70699078459075e-05
195                       8                      12                5.656854     0.00209678355453841     0.00220627063953535     0.00290313125445804
196                       8                      12                2.828427    0.000425283312652641     0.00043228788838081     0.00103710533134176
197                       8                      12                       0    1.52316010247731e-06    1.47686060181237e-06    4.84987840994086e-06
198                      10                      14                5.656854     0.00471269368028531     -0.0342617211685374      -0.241187104038068
199                      10                      14                2.828427    0.000166747417212636    0.000149926280407293    0.000914149937486419
200                      10                      14                       0    1.61419206647474e-05    1.34044270049676e-05     0.00010091989502882
201                      12                      12                5.656854     0.00115418113532533     0.00509561364942348     0.00713170119505891