ITEM: TIMESTEP
0
ITEM: NUMBER OF ATOMS
422
ITEM: BOX BOUNDS ff ff ff
0.0000000000000000e+00 2.3200000000000000e+02
0.0000000000000000e+00 2.3200000000000000e+02
0.0000000000000000e+00 2.3200000000000000e+02
ITEM: ATOMS id xu yu zu fx fy fz
1        113.131882195489        115.969470817328        108.642804001651        5140.35111517538        5919.98452134644       -714.988240397556
2        118.821173991433        115.982915392996        108.650543151362        2143.01824926398       -34.1788467649304       -391.211649908888
3        117.446660126799        116.032110245647        108.701169132882       -3040.36711563683       -2597.53278461153        898.368782843356
4        114.586419658876        116.000299562863        108.672201619927       -264.944057703591        830.766386135907        140.569370991864
5        116.707579425851        114.756229108246        108.663358258082         235.16131884215        1327.64347456132         177.54850982259
6         115.25728994507        114.730755562914        108.639316954202        2848.40537499739        3344.47060956563        -431.39314435427
7        115.309950249918        117.260630590278        108.694462384891       -5899.17696811487       -804.820489441175        854.713340728148
8        116.655237244536        117.181101649697        108.613501203114        4235.07379470847        321.140293017527       -1175.83529448958
9        114.534235784796        113.564925105214        108.673332864039       -11875.5299902056        22360.2127010612       -663.586097551622
10         117.41186039342        113.502708314575        108.608160910688        15333.4843089966         33559.091214369       -1282.03372306813
11        114.532361488238        118.440843589358        108.676351937465       -7783.09029376769       -18219.4261577384        -157.22749858073
12        117.413542988473        118.382183691997        108.614736877818        4554.65001335068       -12499.1500995406       -1260.77377678272
13        113.147315743149        113.582449070811        108.676858482914        931.332197309138        3751.64650376363        444.758603672177
14        113.121927119272        118.404033073433        108.656332311159        13314.4465626038       -17865.3938463275        622.589010536703
15        118.874687085345        113.591911152749        108.680572859177       -10388.2477005211         10730.541175791        1142.99449790383
16        118.852974633159        118.417171332243        108.663722861663       -27091.0046001317       -47154.1475505404        3252.83948609237
17        112.438961572688        117.206485678189        108.669019734549        1180.65153575736         -2235.856207449        30.1466133709171
18        112.467180419448        114.809231175772        108.694805360708       -5124.26222414159        -5208.6101282201        721.661942214351
19        119.549486771982        114.781292687562         108.65971957529        2454.55791595152        2412.12874690936       -151.366345553716
20        119.540049252214        117.197328520145        108.652715277186       -1473.63869768748       -271.871837591103        109.918402800006
21        120.968767682647        114.838067745846        108.670486660023       -7152.15763424377        9658.93540733331        218.668424860255
22        120.922813020897        117.128309888222        108.626875658646        1384.57664415064        602.824457667618       -708.599259331704
23        111.023177136996        114.817010293328        108.659405463835        14390.2877866708         19999.800392394       -887.739811279971
24        111.057097748915        117.187127708043        108.695669735769        6175.40455616549       -14714.1976337838        1358.63366567325
25        121.591536401203        115.996807018581        108.661663940464        6992.60122892286        100.671458866358        141.323624800024
26        110.380955680232        115.975015084425         108.65111910576       -4868.14863883482         2631.9213095165       -153.316594517042
27        121.657178555441        118.233904650544        108.704836509617        3413.78985327389        5138.64006615695        362.184599155108
28        121.618982881365         113.80350216436        108.662234594665        9855.57593885098       -15679.1956646631       -125.013700599218
29        110.339512220398        118.154322956967        108.636551469671       -13107.7984145868        17666.9236647418       -1079.59863229326
30        110.398170839934        113.820774766403        108.690803849674       -16111.4724564755       -25680.1196993676         809.23336338791
31        112.567841462966        112.583429440816        108.624828640723       -5734.25813605166       -9885.80753376169       -514.813559775219
32        112.563810103007        119.321189923617        108.627560602408       -15491.3505174212        25458.5188605619       -798.631790131681
33        119.362924476509        112.604874678189        108.639464943557        9457.99528006399       -19119.1786411483       -796.072351848569
34        119.329882466345        119.313624519592        108.613186259203        28542.1344482348        53651.2449642863       -3024.29446240646
35        115.006138167148         112.61281215816        108.700705594281        15132.9810335118       -30533.3046249099        877.849261413764
36        114.981911935031        119.428208972489        108.683340826349        10832.5995833528         23791.527552034        168.417681867303
37        116.991580290913        112.544613276631        108.630442366892       -16785.8623650994       -38266.3063956853        889.692459285454
38        117.034322098045        119.426978131098        108.680045640514       -6357.76892953104        17510.4643814647        1094.38429145095
39                     100                     100              105.656854                       0                       0                       0
40                     100                     100              102.828427                       0                       0                       0
41                     100                     100                     100                       0                       0                       0
42                     102                     102              105.656854                       0                       0                       0
43                     102                     102              102.828427                       0                       0                       0
44                     102                     102                     100                       0                       0                       0
45                     104                     100              105.656854                       0                       0                       0
46                     104                     100              102.828427                       0                       0                       0
47                     104                     100                     100                       0                       0                       0
48                     106                     102              105.656854                       0                       0                       0
49                     106                     102              102.828427                       0                       0                       0
50                     106                     102                     100                       0                       0                       0
51                     108                     100              105.656854                       0                       0                       0
52                     108                     100              102.828427                       0                       0                       0
53                     108                     100                     100                       0                       0                       0
54                     110                     102              105.656854                       0                       0                       0
55                     110                     102              102.828427                       0                       0                       0
56                     110                     102                     100                       0                       0                       0
57                     112                     100              105.656854                       0                       0                       0
58                     112                     100              102.828427                       0                       0                       0
59                     112                     100                     100                       0                       0                       0
60                     114                     102              105.656854                       0                       0                       0
61                     114                     102              102.828427                       0                       0                       0
62                     114                     102                     100                       0                       0                       0
63                     116                     100              105.656854                       0                       0                       0
64                     116                     100              102.828427                       0                       0                       0
65                     116                     100                     100                       0                       0                       0
66                     118                     102              105.656854                       0                       0                       0
67                     118                     102              102.828427                       0                       0                       0
68                     118                     102                     100                       0                       0                       0
69                     120                     100              105.656854                       0                       0                       0
70                     120                     100              102.828427                       0                       0                       0
71                     120                     100                     100                       0                       0                       0
72                     122                     102              105.656854                       0                       0                       0
73                     122                     102              102.828427                       0                       0                       0
74                     122                     102                     100                       0                       0                       0
75                     124                     100              105.656854                       0                       0                       0
76                     124                     100              102.828427                       0                       0                       0
77                     124                     100                     100                       0                       0                       0
78                     126                     102              105.656854                       0                       0                       0
79                     126                     102              102.828427                       0                       0                       0
80                     126                     102                     100                       0                       0                       0
81                     128                     100              105.656854                       0                       0                       0
82                     128                     100              102.828427                       0                       0                       0
83                     128                     100                     100                       0                       0                       0
84                     130                     102              105.656854                       0                       0                       0
85                     130                     102              102.828427                       0                       0                       0
86                     130                     102                     100                       0                       0                       0
87                     100                     104              105.656854                       0                       0                       0
88                     100                     104              102.828427                       0                       0                       0
89                     100                     104                     100                       0                       0                       0
90                     102                     106              105.656854                       0                       0                       0
91                     102                     106              102.828427                       0                       0                       0
92                     102                     106                     100                       0                       0                       0
93                     104                     104              105.656854                       0                       0                       0
94                     104                     104              102.828427                       0                       0                       0
95                     104                     104                     100                       0                       0                       0
96                     106                     106              105.656854                       0                       0                       0
97                     106                     106              102.828427                       0                       0                       0
98                     106                     106                     100                       0                       0                       0
99                     108                     104              105.656854                       0                       0                       0
100                     108                     104              102.828427                       0                       0                       0
101                     108                     104                     100                       0                       0                       0
102                     110                     106              105.656854                       0                       0                       0
103                     110                     106              102.828427                       0                       0                       0
104                     110                     106                     100                       0                       0                       0
105                     112                     104              105.656854                       0                       0                       0
106                     112                     104              102.828427                       0                       0                       0
107                     112                     104                     100                       0                       0                       0
108                     114                     106              105.656854                       0                       0                       0
109                     114                     106              102.828427                       0                       0                       0
110                     114                     106                     100                       0                       0                       0
111                     116                     104              105.656854                       0                       0                       0
112                     116                     104              102.828427                       0                       0                       0
113                     116                     104                     100                       0                       0                       0
114                     118                     106              105.656854                       0                       0                       0
115                     118                     106              102.828427                       0                       0                       0
116                     118                     106                     100                       0                       0                       0
117                     120                     104              105.656854                       0                       0                       0
118                     120                     104              102.828427                       0                       0                       0
119                     120                     104                     100                       0                       0                       0
120                     122                     106              105.656854                       0                       0                       0
121                     122                     106              102.828427                       0                       0                       0
122                     122                     106                     100                       0                       0                       0
123                     124                     104              105.656854                       0                       0                       0
124                     124                     104              102.828427                       0                       0                       0
125                     124                     104                     100                       0                       0                       0
126                     126                     106              105.656854                       0                       0                       0
127                     126                     106              102.828427                       0                       0                       0
128                     126                     106                     100                       0                       0                       0
129                     128                     104              105.656854                       0                       0                       0
130                     128                     104              102.828427                       0                       0                       0
131                     128                     104                     100                       0                       0                       0
132                     130                     106              105.656854                       0                       0                       0
133                     130                     106              102.828427                       0                       0                       0
134                     130                     106                     100                       0                       0                       0
135                     100                     108              105.656854                       0                       0                       0
136                     100                     108              102.828427                       0                       0                       0
137                     100                     108                     100                       0                       0                       0
138                     102                     110              105.656854                       0                       0                       0
139                     102                     110              102.828427                       0                       0                       0
140                     102                     110                     100                       0                       0                       0
141                     104                     108              105.656854                       0                       0                       0
142                     104                     108              102.828427                       0                       0                       0
143                     104                     108                     100                       0                       0                       0
144                     106                     110              105.656854                       0                       0                       0
145                     106                     110              102.828427                       0                       0                       0
146                     106                     110                     100                       0                       0                       0
147                     108                     108              105.656854                       0                       0                       0
148                     108                     108              102.828427                       0                       0                       0
149                     108                     108                     100                       0                       0                       0
150                     110                     110              105.656854                       0                       0                       0
151                     110                     110              102.828427                       0                       0                       0
152                     110                     110                     100                       0                       0                       0
153                     112                     108              105.656854                       0                       0                       0
154                     112                     108              102.828427                       0                       0                       0
155                     112                     108                     100                       0                       0                       0
156                     114                     110              105.656854                       0                       0                       0
157                     114                     110              102.828427                       0                       0                       0
158                     114                     110                     100                       0                       0                       0
159                     116                     108              105.656854                       0                       0                       0
160                     116                     108              102.828427                       0                       0                       0
161                     116                     108                     100                       0                       0                       0
162                     118                     110              105.656854                       0                       0                       0
163                     118                     110              102.828427                       0                       0                       0
164                     118                     110                     100                       0                       0                       0
165                     120                     108              105.656854                       0                       0                       0
166                     120                     108              102.828427                       0                       0                       0
167                     120                     108                     100                       0                       0                       0
168                     122                     110              105.656854                       0                       0                       0
169                     122                     110              102.828427                       0                       0                       0
170                     122                     110                     100                       0                       0                       0
171                     124                     108              105.656854                       0                       0                       0
172                     124                     108              102.828427                       0                       0                       0
173                     124                     108                     100                       0                       0                       0
174                     126                     110              105.656854                       0                       0                       0
175                     126                     110              102.828427                       0                       0                       0
176                     126                     110                     100                       0                       0                       0
177                     128                     108              105.656854                       0                       0                       0
178                     128                     108              102.828427                       0                       0                       0
179                     128                     108                     100                       0                       0                       0
180                     130                     110              105.656854                       0                       0                       0
181                     130                     110              102.828427                       0                       0                       0
182                     130                     110                     100                       0                       0                       0
183                     100                     112              105.656854                       0                       0                       0
184                     100                     112              102.828427                       0                       0                       0
185                     100                     112                     100                       0                       0                       0
186                     102                     114              105.656854                       0                       0                       0
187                     102                     114              102.828427                       0                       0                       0
188                     102                     114                     100                       0                       0                       0
189                     104                     112              105.656854                       0                       0                       0
190                     104                     112              102.828427                       0                       0                       0
191                     104                     112                     100                       0                       0                       0
192                     106                     114              105.656854                       0                       0                       0
193                     106                     114              102.828427                       0                       0                       0
194                     106                     114                     100                       0                       0                       0
195                     108                     112              105.656854                       0                       0                       0
196                     108                     112              102.828427                       0                       0                       0
197                     108                     112                     100                       0                       0                       0
198                     110                     114              105.656854                       0                       0                       0
199                     110                     114              102.828427                       0                       0                       0
200                     110                     114                     100                       0                       0                       0
201                     112                     112              105.656854                       0                       0                       0