ITEM: TIMESTEP
0
ITEM: NUMBER OF ATOMS
422
ITEM: BOX BOUNDS ff ff ff
0.0000000000000000e+00 2.3200000000000000e+02
0.0000000000000000e+00 2.3200000000000000e+02
0.0000000000000000e+00 2.3200000000000000e+02
ITEM: ATOMS id xu yu zu fx fy fz
1        113.150024536533        115.987613158372        108.660946342695        797.340869746026        4343.51907824999        122.349669513047
2        118.806815725805        115.968557127368        108.636184885734       -1720.08496379237        2672.33960918048        -243.05289290893
3        117.358249064322         115.94369918317        108.612758070405           3236.51268375        4195.28843959611       -472.225477877106
4        114.524305943869        115.938185847856         108.61008790492        4029.50213580163        2524.81977117035       -616.522444035462
5        116.703414839858        114.752064522252        108.659193672089       -2867.00110256879       -4414.23077364254        520.404514786002
6        115.264634861867        114.738100479711           108.646661871        864.373723618983       -1771.11577182735        198.416757464337
7        115.274573752055        117.225254092415        108.659085887027       -3624.07313913633       -1760.68120892667         195.44965480428
8        116.663029666634        117.188894071795        108.621293625213        2157.07640999462       -95.2869958598802       -203.893605338568
9         114.48541189305        113.516101213468        108.624508972293       -4449.95654586984        22294.7063276445       -237.903370551948
10        117.433990456645          113.5248383778        108.630290973914        11892.6207559531         26664.179095842       -631.020005850674
11        114.548742245202        118.457224346322        108.692732694429       -4143.64552954282       -16987.1097029804        -194.79139078167
12         117.42469429154        118.393334995063        108.625888180885         5012.8137758615       -18391.8916368273       -506.309678746734
13        113.120128568369        113.555261896031        108.649671308134        4815.46025922959        16483.9376062025        35.6410247432801
14        113.166893878626        118.448999832787        108.701299070512         8902.0890751613       -23298.6853772354        1180.02859177491
15        118.870758121193        113.587982188597        108.676643895025       -9433.07268982048        14222.9810903922        711.100009223139
16        118.815744620215        118.379941319299        108.626492848718       -1665.79194656426        -1258.5669269543       -789.721140661916
17         112.39846931284        117.165993418341        108.628527474701       -93.3159447233571        3925.57436562852       -240.553585608602
18        112.477389810974        114.819440567297        108.705014752234       -2374.31439064418       -5010.81929145668        656.439336883622
19        119.565515009027        114.797320924607        108.675747812335        2382.40324605428        38.1860225679854        134.492376114554
20        119.557773247108         117.21505251504         108.67043927208       -1893.04301927871       -3053.61066831823        578.468173928396
21        120.993472758965        114.862772822164        108.695191736341       -12483.8020916214        119.189117478657        1295.92869253277
22        120.935215102649        117.140711969975        108.639277740399        691.294175975136       -3737.57145478213       -450.605422259746
23        111.062342133889         114.85617529022        108.698570460728        554.073973873766       -1302.03197842535        547.064382334587
24        110.968840234541        117.098870193669        108.607412221396        5932.41437536207       -262.308732881183       -1554.84937659644
25        121.547593317892         115.95286393527        108.617720857153        10728.3462090829        10775.3444017134       -1223.08622797081
26        110.388889039233        115.982948443426        108.659052464761        -9525.1154591774       -4947.32495180579        298.578667703289
27        121.635495017402        118.212221112504        108.683152971578        5493.72583789775        8403.51114935814        344.023166666231
28        121.646041794695         113.83056107769        108.689293507995        9976.61051589728       -15780.3601618108       -89.9083552368875
29        110.406330352601         118.22114108917        108.703369601874       -5613.13479534881        11192.8896714588        956.807027056844
30        110.322805905262        113.745409831731        108.615438915001       -3177.77485597916        -4772.8313419679       -357.069601639682
31        112.588776721457        112.604364699307        108.645763899214        -12102.580684611       -21655.9243245829        -88.985381677786
32        112.603083422173        119.360463242783        108.666833921573       -16002.1142600741        25868.6885121133       -978.021979425904
33        119.374662854926        112.616613056605        108.651203321974        10722.8442808821       -20668.8707627054       -541.213693817277
34        119.404683315163         119.38842536841        108.687987108021        4959.71425708004         8493.9569511085        517.782578192677
35        114.929252808664        112.535926799676        108.623820235797        12008.8773630773       -26516.8088406731       -18.7232707552097
36        115.003668281755        119.449965319214        108.705097173073         9996.7726539212        21812.7406619616         271.70159567743
37        117.002201003488        112.555233989205        108.641063079466       -14130.4136972122       -31729.4568171395         352.38757149669
38        117.002505007411        119.395161040465         108.64822854988       -9855.63146225536        23383.6358491357        521.393110845275
39                     100                     100              105.656854                       0                       0                       0
40                     100                     100              102.828427                       0                       0                       0
41                     100                     100                     100                       0                       0                       0
42                     102                     102              105.656854                       0                       0                       0
43                     102                     102              102.828427                       0                       0                       0
44                     102                     102                     100                       0                       0                       0
45                     104                     100              105.656854                       0                       0                       0
46                     104                     100              102.828427                       0                       0                       0
47                     104                     100                     100                       0                       0                       0
48                     106                     102              105.656854                       0                       0                       0
49                     106                     102              102.828427                       0                       0                       0
50                     106                     102                     100                       0                       0                       0
51                     108                     100              105.656854                       0                       0                       0
52                     108                     100              102.828427                       0                       0                       0
53                     108                     100                     100                       0                       0                       0
54                     110                     102              105.656854                       0                       0                       0
55                     110                     102              102.828427                       0                       0                       0
56                     110                     102                     100                       0                       0                       0
57                     112                     100              105.656854                       0                       0                       0
58                     112                     100              102.828427                       0                       0                       0
59                     112                     100                     100                       0                       0                       0
60                     114                     102              105.656854                       0                       0                       0
61                     114                     102              102.828427                       0                       0                       0
62                     114                     102                     100                       0                       0                       0
63                     116                     100              105.656854                       0                       0                       0
64                     116                     100              102.828427                       0                       0                       0
65                     116                     100                     100                       0                       0                       0
66                     118                     102              105.656854                       0                       0                       0
67                     118                     102              102.828427                       0                       0                       0
68                     118                     102                     100                       0                       0                       0
69                     120                     100              105.656854                       0                       0                       0
70                     120                     100              102.828427                       0                       0                       0
71                     120                     100                     100                       0                       0                       0
72                     122                     102              105.656854                       0                       0                       0
73                     122                     102              102.828427                       0                       0                       0
74                     122                     102                     100                       0                       0                       0
75                     124                     100              105.656854                       0                       0                       0
76                     124                     100              102.828427                       0                       0                       0
77                     124                     100                     100                       0                       0                       0
78                     126                     102              105.656854                       0                       0                       0
79                     126                     102              102.828427                       0                       0                       0
80                     126                     102                     100                       0                       0                       0
81                     128                     100              105.656854                       0                       0                       0
82                     128                     100              102.828427                       0                       0                       0
83                     128                     100                     100                       0                       0                       0
84                     130                     102              105.656854                       0                       0                       0
85                     130                     102              102.828427                       0                       0                       0
86                     130                     102                     100                       0                       0                       0
87                     100                     104              105.656854                       0                       0                       0
88                     100                     104              102.828427                       0                       0                       0
89                     100                     104                     100                       0                       0                       0
90                     102                     106              105.656854                       0                       0                       0
91                     102                     106              102.828427                       0                       0                       0
92                     102                     106                     100                       0                       0                       0
93                     104                     104              105.656854                       0                       0                       0
94                     104                     104              102.828427                       0                       0                       0
95                     104                     104                     100                       0                       0                       0
96                     106                     106              105.656854                       0                       0                       0
97                     106                     106              102.828427                       0                       0                       0
98                     106                     106                     100                       0                       0                       0
99                     108                     104              105.656854                       0                       0                       0
100                     108                     104              102.828427                       0                       0                       0
101                     108                     104                     100                       0                       0                       0
102                     110                     106              105.656854                       0                       0                       0
103                     110                     106              102.828427                       0                       0                       0
104                     110                     106                     100                       0                       0                       0
105                     112                     104              105.656854                       0                       0                       0
106                     112                     104              102.828427                       0                       0                       0
107                     112                     104                     100                       0                       0                       0
108                     114                     106              105.656854                       0                       0                       0
109                     114                     106              102.828427                       0                       0                       0
110                     114                     106                     100                       0                       0                       0
111                     116                     104              105.656854                       0                       0                       0
112                     116                     104              102.828427                       0                       0                       0
113                     116                     104                     100                       0                       0                       0
114                     118                     106              105.656854                       0                       0                       0
115                     118                     106              102.828427                       0                       0                       0
116                     118                     106                     100                       0                       0                       0
117                     120                     104              105.656854                       0                       0                       0
118                     120                     104              102.828427                       0                       0                       0
119                     120                     104                     100                       0                       0                       0
120                     122                     106              105.656854                       0                       0                       0
121                     122                     106              102.828427                       0                       0                       0
122                     122                     106                     100                       0                       0                       0
123                     124                     104              105.656854                       0                       0                       0
124                     124                     104              102.828427                       0                       0                       0
125                     124                     104                     100                       0                       0                       0
126                     126                     106              105.656854                       0                       0                       0
127                     126                     106              102.828427                       0                       0                       0
128                     126                     106                     100                       0                       0                       0
129                     128                     104              105.656854                       0                       0                       0
130                     128                     104              102.828427                       0                       0                       0
131                     128                     104                     100                       0                       0                       0
132                     130                     106              105.656854                       0                       0                       0
133                     130                     106              102.828427                       0                       0                       0
134                     130                     106                     100                       0                       0                       0
135                     100                     108              105.656854                       0                       0                       0
136                     100                     108              102.828427                       0                       0                       0
137                     100                     108                     100                       0                       0                       0
138                     102                     110              105.656854                       0                       0                       0
139                     102                     110              102.828427                       0                       0                       0
140                     102                     110                     100                       0                       0                       0
141                     104                     108              105.656854                       0                       0                       0
142                     104                     108              102.828427                       0                       0                       0
143                     104                     108                     100                       0                       0                       0
144                     106                     110              105.656854                       0                       0                       0
145                     106                     110              102.828427                       0                       0                       0
146                     106                     110                     100                       0                       0                       0
147                     108                     108              105.656854                       0                       0                       0
148                     108                     108              102.828427                       0                       0                       0
149                     108                     108                     100                       0                       0                       0
150                     110                     110              105.656854                       0                       0                       0
151                     110                     110              102.828427                       0                       0                       0
152                     110                     110                     100                       0                       0                       0
153                     112                     108              105.656854                       0                       0                       0
154                     112                     108              102.828427                       0                       0                       0
155                     112                     108                     100                       0                       0                       0
156                     114                     110              105.656854                       0                       0                       0
157                     114                     110              102.828427                       0                       0                       0
158                     114                     110                     100                       0                       0                       0
159                     116                     108              105.656854                       0                       0                       0
160                     116                     108              102.828427                       0                       0                       0
161                     116                     108                     100                       0                       0                       0
162                     118                     110              105.656854                       0                       0                       0
163                     118                     110              102.828427                       0                       0                       0
164                     118                     110                     100                       0                       0                       0
165                     120                     108              105.656854                       0                       0                       0
166                     120                     108              102.828427                       0                       0                       0
167                     120                     108                     100                       0                       0                       0
168                     122                     110              105.656854                       0                       0                       0
169                     122                     110              102.828427                       0                       0                       0
170                     122                     110                     100                       0                       0                       0
171                     124                     108              105.656854                       0                       0                       0
172                     124                     108              102.828427                       0                       0                       0
173                     124                     108                     100                       0                       0                       0
174                     126                     110              105.656854                       0                       0                       0
175                     126                     110              102.828427                       0                       0                       0
176                     126                     110                     100                       0                       0                       0
177                     128                     108              105.656854                       0                       0                       0
178                     128                     108              102.828427                       0                       0                       0
179                     128                     108                     100                       0                       0                       0
180                     130                     110              105.656854                       0                       0                       0
181                     130                     110              102.828427                       0                       0                       0
182                     130                     110                     100                       0                       0                       0
183                     100                     112              105.656854                       0                       0                       0
184                     100                     112              102.828427                       0                       0                       0
185                     100                     112                     100                       0                       0                       0
186                     102                     114              105.656854                       0                       0                       0
187                     102                     114              102.828427                       0                       0                       0
188                     102                     114                     100                       0                       0                       0
189                     104                     112              105.656854                       0                       0                       0
190                     104                     112              102.828427                       0                       0                       0
191                     104                     112                     100                       0                       0                       0
192                     106                     114              105.656854                       0                       0                       0
193                     106                     114              102.828427                       0                       0                       0
194                     106                     114                     100                       0                       0                       0
195                     108                     112              105.656854                       0                       0                       0
196                     108                     112              102.828427                       0                       0                       0
197                     108                     112                     100                       0                       0                       0
198                     110                     114              105.656854                       0                       0                       0
199                     110                     114              102.828427                       0                       0                       0
200                     110                     114                     100                       0                       0                       0
201                     112                     112              105.656854                       0                       0                       0