ITEM: TIMESTEP
0
ITEM: NUMBER OF ATOMS
422
ITEM: BOX BOUNDS ff ff ff
0.0000000000000000e+00 2.3200000000000000e+02
0.0000000000000000e+00 2.3200000000000000e+02
0.0000000000000000e+00 2.3200000000000000e+02
ITEM: ATOMS id xu yu zu fx fy fz
1        113.154225126339        115.991813748178          108.6651469325       -625.189032918443       -844.933914968138        125.090690571206
2        118.824253821508        115.985995223071        108.653622981437       -914.369720672799        1525.68748402237        185.592288552676
3        117.358840026267        115.944290145115        108.613349032351        5839.02274961949        8851.98680961625       -1117.13400782476
4        114.560774899473        115.974654803459        108.646556860524       -526.893773442537       -3499.43845567505        223.403149409971
5        116.733958182985         114.78260786538        108.689737015216       -7180.73480226547       -8322.15767464832        1024.84592090298
6        115.253057531425        114.726523149269        108.635084540557        2838.98023836695        507.969331408744        -201.06272575734
7        115.223629295281        117.174309635641        108.608141430254        3594.73965576481        3247.59105948703       -421.886406282423
8        116.684920008182        117.210784413343        108.643183966761       -237.350656214919        1847.28690829579        103.434173115799
9         114.50196288733        113.532652207747        108.641059966572       -8001.12906202302        20632.2543836666        135.237201070262
10        117.493340824699        113.584188745854        108.689641341968        10189.5833751758        28467.3486860535       -504.776519213582
11         114.47698214353         118.38546424465        108.620972592757        7792.00091568912       -9003.05140623193       -1612.54285282372
12        117.486961854267         118.45560255779        108.688155743611       -2815.70989666107       -20538.6240633275        593.437812256414
13        113.102784635727        113.537917963389        108.632327375491        17661.5232328679        33663.5316080825       -1568.79663685629
14        113.170564824047        118.452670778208        108.704970015933        2331.90752174771       -21498.7472203064        2574.40778627076
15         118.88283919284        113.600063260244        108.688724966672       -14292.4851926084        3409.39454697836        1565.73510189098
16        118.804448680114        118.368645379199        108.615196908618       -1737.28058711254       -14419.7389378304       -1479.70059127529
17        112.440312463856        117.207836569357        108.670370625717        353.448638323229        1748.68017594811       -57.2999574177277
18        112.422519322112        114.764570078436        108.650144263373        663.951452038012        1177.15202725843        8.28393229913314
19        119.497658454707        114.729464370287        108.607891258014        8309.79582127035        13551.9224998937       -1655.48663188056
20        119.577966471506        117.235245739437        108.690632496477        -2692.3938292684       -3362.88462785431        971.025534009456
21        120.943418418277        114.812718481475        108.645137395652        -10343.639241306        11078.5262143482       -323.210888896105
22        120.939229750317        117.144726617642        108.643292388066       -5955.86887781012       -16087.0840370248        39.0935006786709
23        111.018607561003        114.812440717335        108.654835887842        2335.63365699605        4840.08435066983        283.854525642545
24        111.023762980827        117.153792939956        108.662334967682        6590.82902512516       -10140.9751159387        -199.03386445749
25         121.56692982236        115.972200439738         108.63705736162        6231.32814876896        761.283446775423       -72.0110837549364
26        110.393814844625        115.987874248818        108.663978270153        -5919.7778061632       -303.760556007446        49.7677086392382
27        121.578083532005        118.154809627108        108.625741486181        13191.9774210113        20852.4240410904       -362.462000453637
28        121.630444139528        113.814963422522        108.673695852827        11710.2677989871       -17006.4162607125        486.786603785927
29        110.375661400391         118.19047213696        108.672700649664       -9746.81603251695        15588.3400820015        155.826850349206
30        110.330096497863        113.752700424332        108.622729507603        -6485.5167484597       -9980.61294967718       -302.341757392578
31        112.608179466796        112.623767444647        108.665166644553       -21575.9634093408       -39876.1557125201        1432.36281160411
32        112.595416380433        119.352796201043        108.659166879834       -17007.9004454753        26618.0671140884       -1354.13612359033
33        119.402694078495        112.644644280174        108.679234545543        12079.7097348019       -22201.8846458485       -220.316356589878
34        119.337392359576        119.321134412823        108.620696152434        11806.3055415899        21098.3249300214        121.392556045001
35        114.944199947567         112.55087393858          108.6387673747        11840.8795542776       -26284.0082378556       -61.3615339974596
36        114.963352226188        119.409649263646        108.664781117506        6259.21408631302        13174.1158904633        563.182551371025
37        117.065378911086        112.618411896804        108.704240987065       -14965.5083005755       -33768.4241573586        510.473207677641
38         117.05704443823        119.449700471283        108.702767980699       -10596.5711538994        24496.9263836158        360.326032321109
39                     100                     100              105.656854                       0                       0                       0
40                     100                     100              102.828427                       0                       0                       0
41                     100                     100                     100                       0                       0                       0
42                     102                     102              105.656854                       0                       0                       0
43                     102                     102              102.828427                       0                       0                       0
44                     102                     102                     100                       0                       0                       0
45                     104                     100              105.656854                       0                       0                       0
46                     104                     100              102.828427                       0                       0                       0
47                     104                     100                     100                       0                       0                       0
48                     106                     102              105.656854                       0                       0                       0
49                     106                     102              102.828427                       0                       0                       0
50                     106                     102                     100                       0                       0                       0
51                     108                     100              105.656854                       0                       0                       0
52                     108                     100              102.828427                       0                       0                       0
53                     108                     100                     100                       0                       0                       0
54                     110                     102              105.656854                       0                       0                       0
55                     110                     102              102.828427                       0                       0                       0
56                     110                     102                     100                       0                       0                       0
57                     112                     100              105.656854                       0                       0                       0
58                     112                     100              102.828427                       0                       0                       0
59                     112                     100                     100                       0                       0                       0
60                     114                     102              105.656854                       0                       0                       0
61                     114                     102              102.828427                       0                       0                       0
62                     114                     102                     100                       0                       0                       0
63                     116                     100              105.656854                       0                       0                       0
64                     116                     100              102.828427                       0                       0                       0
65                     116                     100                     100                       0                       0                       0
66                     118                     102              105.656854                       0                       0                       0
67                     118                     102              102.828427                       0                       0                       0
68                     118                     102                     100                       0                       0                       0
69                     120                     100              105.656854                       0                       0                       0
70                     120                     100              102.828427                       0                       0                       0
71                     120                     100                     100                       0                       0                       0
72                     122                     102              105.656854                       0                       0                       0
73                     122                     102              102.828427                       0                       0                       0
74                     122                     102                     100                       0                       0                       0
75                     124                     100              105.656854                       0                       0                       0
76                     124                     100              102.828427                       0                       0                       0
77                     124                     100                     100                       0                       0                       0
78                     126                     102              105.656854                       0                       0                       0
79                     126                     102              102.828427                       0                       0                       0
80                     126                     102                     100                       0                       0                       0
81                     128                     100              105.656854                       0                       0                       0
82                     128                     100              102.828427                       0                       0                       0
83                     128                     100                     100                       0                       0                       0
84                     130                     102              105.656854                       0                       0                       0
85                     130                     102              102.828427                       0                       0                       0
86                     130                     102                     100                       0                       0                       0
87                     100                     104              105.656854                       0                       0                       0
88                     100                     104              102.828427                       0                       0                       0
89                     100                     104                     100                       0                       0                       0
90                     102                     106              105.656854                       0                       0                       0
91                     102                     106              102.828427                       0                       0                       0
92                     102                     106                     100                       0                       0                       0
93                     104                     104              105.656854                       0                       0                       0
94                     104                     104              102.828427                       0                       0                       0
95                     104                     104                     100                       0                       0                       0
96                     106                     106              105.656854                       0                       0                       0
97                     106                     106              102.828427                       0                       0                       0
98                     106                     106                     100                       0                       0                       0
99                     108                     104              105.656854                       0                       0                       0
100                     108                     104              102.828427                       0                       0                       0
101                     108                     104                     100                       0                       0                       0
102                     110                     106              105.656854                       0                       0                       0
103                     110                     106              102.828427                       0                       0                       0
104                     110                     106                     100                       0                       0                       0
105                     112                     104              105.656854                       0                       0                       0
106                     112                     104              102.828427                       0                       0                       0
107                     112                     104                     100                       0                       0                       0
108                     114                     106              105.656854                       0                       0                       0
109                     114                     106              102.828427                       0                       0                       0
110                     114                     106                     100                       0                       0                       0
111                     116                     104              105.656854                       0                       0                       0
112                     116                     104              102.828427                       0                       0                       0
113                     116                     104                     100                       0                       0                       0
114                     118                     106              105.656854                       0                       0                       0
115                     118                     106              102.828427                       0                       0                       0
116                     118                     106                     100                       0                       0                       0
117                     120                     104              105.656854                       0                       0                       0
118                     120                     104              102.828427                       0                       0                       0
119                     120                     104                     100                       0                       0                       0
120                     122                     106              105.656854                       0                       0                       0
121                     122                     106              102.828427                       0                       0                       0
122                     122                     106                     100                       0                       0                       0
123                     124                     104              105.656854                       0                       0                       0
124                     124                     104              102.828427                       0                       0                       0
125                     124                     104                     100                       0                       0                       0
126                     126                     106              105.656854                       0                       0                       0
127                     126                     106              102.828427                       0                       0                       0
128                     126                     106                     100                       0                       0                       0
129                     128                     104              105.656854                       0                       0                       0
130                     128                     104              102.828427                       0                       0                       0
131                     128                     104                     100                       0                       0                       0
132                     130                     106              105.656854                       0                       0                       0
133                     130                     106              102.828427                       0                       0                       0
134                     130                     106                     100                       0                       0                       0
135                     100                     108              105.656854                       0                       0                       0
136                     100                     108              102.828427                       0                       0                       0
137                     100                     108                     100                       0                       0                       0
138                     102                     110              105.656854                       0                       0                       0
139                     102                     110              102.828427                       0                       0                       0
140                     102                     110                     100                       0                       0                       0
141                     104                     108              105.656854                       0                       0                       0
142                     104                     108              102.828427                       0                       0                       0
143                     104                     108                     100                       0                       0                       0
144                     106                     110              105.656854                       0                       0                       0
145                     106                     110              102.828427                       0                       0                       0
146                     106                     110                     100                       0                       0                       0
147                     108                     108              105.656854                       0                       0                       0
148                     108                     108              102.828427                       0                       0                       0
149                     108                     108                     100                       0                       0                       0
150                     110                     110              105.656854                       0                       0                       0
151                     110                     110              102.828427                       0                       0                       0
152                     110                     110                     100                       0                       0                       0
153                     112                     108              105.656854                       0                       0                       0
154                     112                     108              102.828427                       0                       0                       0
155                     112                     108                     100                       0                       0                       0
156                     114                     110              105.656854                       0                       0                       0
157                     114                     110              102.828427                       0                       0                       0
158                     114                     110                     100                       0                       0                       0
159                     116                     108              105.656854                       0                       0                       0
160                     116                     108              102.828427                       0                       0                       0
161                     116                     108                     100                       0                       0                       0
162                     118                     110              105.656854                       0                       0                       0
163                     118                     110              102.828427                       0                       0                       0
164                     118                     110                     100                       0                       0                       0
165                     120                     108              105.656854                       0                       0                       0
166                     120                     108              102.828427                       0                       0                       0
167                     120                     108                     100                       0                       0                       0
168                     122                     110              105.656854                       0                       0                       0
169                     122                     110              102.828427                       0                       0                       0
170                     122                     110                     100                       0                       0                       0
171                     124                     108              105.656854                       0                       0                       0
172                     124                     108              102.828427                       0                       0                       0
173                     124                     108                     100                       0                       0                       0
174                     126                     110              105.656854                       0                       0                       0
175                     126                     110              102.828427                       0                       0                       0
176                     126                     110                     100                       0                       0                       0
177                     128                     108              105.656854                       0                       0                       0
178                     128                     108              102.828427                       0                       0                       0
179                     128                     108                     100                       0                       0                       0
180                     130                     110              105.656854                       0                       0                       0
181                     130                     110              102.828427                       0                       0                       0
182                     130                     110                     100                       0                       0                       0
183                     100                     112              105.656854                       0                       0                       0
184                     100                     112              102.828427                       0                       0                       0
185                     100                     112                     100                       0                       0                       0
186                     102                     114              105.656854                       0                       0                       0
187                     102                     114              102.828427                       0                       0                       0
188                     102                     114                     100                       0                       0                       0
189                     104                     112              105.656854                       0                       0                       0
190                     104                     112              102.828427                       0                       0                       0
191                     104                     112                     100                       0                       0                       0
192                     106                     114              105.656854                       0                       0                       0
193                     106                     114              102.828427                       0                       0                       0
194                     106                     114                     100                       0                       0                       0
195                     108                     112              105.656854                       0                       0                       0
196                     108                     112              102.828427                       0                       0                       0
197                     108                     112                     100                       0                       0                       0
198                     110                     114              105.656854                       0                       0                       0
199                     110                     114              102.828427                       0                       0                       0
200                     110                     114                     100                       0                       0                       0
201                     112                     112              105.656854                       0                       0                       0