ITEM: TIMESTEP
0
ITEM: NUMBER OF ATOMS
422
ITEM: BOX BOUNDS pp pp pp
0.0000000000000000e+00 3.2000000000000000e+01
0.0000000000000000e+00 3.2000000000000000e+01
0.0000000000000000e+00 3.2000000000000000e+01
ITEM: ATOMS id xu yu zu fx fy fz
1        14.4459321938386        15.9835208156773                 8.65685     0.00455042751755447    0.000767977647323741      0.0152924497850796
2        20.1274848400711        15.9892262416344                 8.65685   -0.000780396180614233    7.01547272934839e-05    -0.00426905862299221
3         18.702344993917         15.987795112765                 8.65685     0.00579794971286616    0.000472392946055461      0.0107854841565189
4         15.871072038949        15.9849519429358                 8.65685    0.000789631437730865    9.81285282039154e-05    -0.00426464661381207
5        18.0010751677692        14.7497248501637                 8.65685    5.83316832655822e-05      0.0407291345565829       0.138706684425226
6        16.5748269908674        14.7482926087119                 8.65685     -0.0200722710091637      0.0115567145713823      0.0301280289755403
7        16.5723418650276        17.2230222053877                 8.65685     -0.0194499576402199     -0.0116105992727662      0.0288287318175644
8        17.9985900414216        17.2244544465825                 8.65685   -7.46231790857143e-05     -0.0410925675259436       0.134905821957971
9        15.8177569207574        13.5484462411751                 8.65685     0.00842326948894334    -0.00502255128264278      0.0178029473051794
10        18.7605534827313        13.5514014038861                 8.65685      0.0360326139075834     -0.0212447660591109       0.118882873871169
11        15.8128635507729         18.421345651893                 8.65685      0.0087907210754867       0.004796347237214      0.0184446448403726
12        18.7556601106552        18.4243008141789                 8.65685      0.0364521286144401      0.0204574814630569       0.121331395175916
13        14.4273112602358        13.5624445878976                 8.65685      0.0261290799796629     -0.0267566013436293       0.158301433656425
14        14.4224488081137        18.4045547622743                 8.65685      0.0263571549582442      0.0252388926102264       0.161876972542776
15         20.150968226168        13.5681922935721                 8.65685    -0.00706584453640627     -0.0047304609553391      0.0173009175731706
16        20.1461057714963        18.4103024705805                 8.65685    -0.00691764596829956     0.00453503076840151      0.0175194127574444
17         13.726795838139        17.1943199436399                 8.65685     -0.0133943966751339     -0.0395201002493367       0.123713680074156
18        13.7292290587396        14.7712798150634                 8.65685     -0.0137469646617769      0.0391904923487006       0.128686132500374
19        20.8466211966922        14.7784271122721                 8.65685     -0.0260128471283856      0.0178330546370965      0.0504543350177687
20        20.8441879750283        17.2014672429596                 8.65685     -0.0254538209347952     -0.0178629013224491      0.0489954135467717
21        22.2551350226241        14.8244350858224                 8.65685       0.012343918302291      0.0398999254534227       0.121880795926186
22        22.2527913622507        17.1582882295758                 8.65685      0.0120204182296052     -0.0400260046523632       0.119513168343017
23        12.3206256731611        14.8144588294926                 8.65685     -0.0109532904073748     0.00778767500777212      0.0145730193600066
24        12.3182820131454        17.1483119722736                 8.65685     -0.0104517553886439    -0.00777153947121468      0.0135247620646937
25        22.8867264607395        15.9919970781177                 8.65685     0.00202121276065925    0.000101378990311688    -0.00555344178716904
26        11.6866905744716        15.9807499786644                 8.65685     0.00058311452030314    5.40654282769356e-05    -0.00970603383599661
27         22.909196045824        18.1859221409264                 8.65685      0.0168121208774789     0.00340931211259736      0.0387783430982362
28        22.9136022867001        13.7981215696947                 8.65685      0.0167379894209736    -0.00366796210823159      0.0382948471951638
29        11.6598147507275        18.1746254872963                 8.65685     0.00701388620980654    0.000992436921548237     0.00319757340656187
30        11.6642209902605        13.7868249167297                 8.65685     0.00685959534278931    -0.00119022833261864     0.00293071834866818
31        13.8998668222426        12.6154548000933                 8.65685   -0.000203866716245849    -0.00318107784008366    -0.00420559026165295
32        13.8931035005993        19.3504833212092                 8.65685   -0.000234787145077456     0.00333058424061641    -0.00375550700274981
33        20.6803135329519        12.6222637346313                 8.65685   -0.000666015989115093   -0.000720933692383405    -0.00892185205576639
34        20.6735502071424         19.357292260389                 8.65685   -0.000701165854992685    0.000731019728857903    -0.00887032298448486
35        16.2622865728669        12.5689605638796                 8.65685   -0.000195824218795094   -7.93552726807292e-05     -0.0100165447418926
36         16.255425108682        19.4017221461408                 8.65685   -0.000213846197841226    8.43364600164061e-05    -0.00998901120780663
37        18.3179919240215        12.5710249097393                 8.65685    0.000542422329536633    -0.00278087434762554    -0.00516202768758667
38         18.311130457531        19.4037864905846                 8.65685     0.00056568343535233     0.00290064287145011    -0.00484759083441359
39                       0                       0                5.656854                       0                       0                       0
40                       0                       0                2.828427                       0                       0                       0
41                       0                       0                       0                       0                       0                       0
42                       2                       2                5.656854                       0                       0                       0
43                       2                       2                2.828427                       0                       0                       0
44                       2                       2                       0                       0                       0                       0
45                       4                       0                5.656854                       0                       0                       0
46                       4                       0                2.828427                       0                       0                       0
47                       4                       0                       0                       0                       0                       0
48                       6                       2                5.656854    7.08252830723798e-09    1.24759455023543e-08     3.2146948492379e-09
49                       6                       2                2.828427    2.13278360620848e-10     3.8466503627056e-10    1.96094909930767e-10
50                       6                       2                       0                       0                       0                       0
51                       8                       0                5.656854    2.75031187067933e-10     1.8110399273322e-11    1.74467972431725e-10
52                       8                       0                2.828427                       0                       0                       0
53                       8                       0                       0                       0                       0                       0
54                      10                       2                5.656854     5.6835759018801e-08    1.71550867834742e-07     4.5010227991241e-08
55                      10                       2                2.828427    2.10902816802322e-09    6.39694575224308e-09     3.2633865628255e-09
56                      10                       2                       0    4.33670962636545e-10    1.69507710433334e-09    1.31458472544348e-09
57                      12                       0                5.656854    1.29762704202449e-09     1.4997799545152e-10    1.52728862168438e-09
58                      12                       0                2.828427     1.2566543590052e-09    7.90199153505457e-10    3.14801935831349e-09
59                      12                       0                       0                       0                       0                       0
60                      14                       2                5.656854    7.33909420309743e-08    6.21059277400191e-07    1.66233440077005e-07
61                      14                       2                2.828427    2.65969097644583e-09    2.18657371454127e-08    1.13331542979407e-08
62                      14                       2                       0     8.5221638319063e-10    9.07583433921402e-09    7.08563249998383e-09
63                      16                       0                5.656854    5.57345376252479e-10    2.88097638135986e-10    3.22831094302702e-09
64                      16                       0                2.828427    1.60770886821014e-10    3.13588296321084e-10    7.12695656550698e-09
65                      16                       0                       0                       0                       0                       0
66                      18                       2                5.656854   -1.82515584359013e-08    7.97999059122405e-07    2.14432426277512e-07
67                      18                       2                2.828427    -6.1647960002885e-10     2.7784224151497e-08    1.44635361048046e-08
68                      18                       2                       0   -4.07051386298311e-10    1.26387263842385e-08    9.88041863671998e-09
69                      20                       0                5.656854     -1.141006835751e-09    2.16821728130078e-10    2.80989368317605e-09
70                      20                       0                2.828427    -9.6734175587171e-10    2.26434762207199e-10    6.29197311335826e-09
71                      20                       0                       0                       0                       0                       0
72                      22                       2                5.656854    -8.5151051118129e-08    4.49892682309046e-07    1.19610775796333e-07
73                      22                       2                2.828427   -2.95598744766615e-09    1.58222695162827e-08    8.16821470017925e-09
74                      22                       2                       0   -1.32473969703458e-09    7.10962164807754e-09    5.52361176966438e-09
75                      24                       0                5.656854   -1.05890479381157e-09    6.22945120506046e-11    9.09460765792773e-10
76                      24                       0                2.828427   -7.74178208946398e-10    3.82344458958019e-11    1.14965942961454e-09
77                      24                       0                       0                       0                       0                       0
78                      26                       2                5.656854   -3.28359843243205e-08    7.91251313839997e-08    2.05891037810506e-08
79                      26                       2                2.828427   -1.31294375784701e-09    3.14895306242697e-09    1.59084108157356e-09
80                      26                       2                       0   -3.61139073111821e-10    9.96894512120429e-10    7.65544500437888e-10
81                      28                       0                5.656854   -7.37572667221829e-11     1.9553008467802e-12    3.02159087104491e-11
82                      28                       0                2.828427                       0                       0                       0
83                      28                       0                       0                       0                       0                       0
84                      30                       2                5.656854   -1.90435385571862e-09     2.8829548133329e-09    7.50640658578078e-10
85                      30                       2                2.828427   -6.20843102654265e-11    1.03363975565106e-10    5.10631263626392e-11
86                      30                       2                       0                       0                       0                       0
87                       0                       4                5.656854   -8.33291603223809e-10    8.71980726135028e-10    2.64858859298853e-10
88                       0                       4                2.828427   -8.02663635849658e-10    8.65535070308075e-10    5.14864453886071e-10
89                       0                       4                       0                       0                       0                       0
90                       2                       6                5.656854    2.06793528662477e-08    2.23910338259314e-08    8.32442957789695e-09
91                       2                       6                2.828427    7.31393919583445e-10    7.79752121259863e-10    5.73416298738503e-10
92                       2                       6                       0                       0                       0                       0
93                       4                       4                5.656854    3.70014474918625e-09    4.42658823924646e-09    1.33810446552068e-09
94                       4                       4                2.828427    4.07929763519247e-09    4.95734635695126e-09    2.93723032774242e-09
95                       4                       4                       0                       0                       0                       0
96                       6                       6                5.656854    1.23966288696444e-06    1.53750839535704e-06    5.79986220662764e-07
97                       6                       6                2.828427    3.79896183802544e-08    4.67165570812972e-08    3.40286599057899e-08
98                       6                       6                       0    1.59103812340645e-08    1.94924041689577e-08    2.11418462931397e-08
99                       8                       4                5.656854    6.88887201163949e-08     1.3290674422101e-07    4.11102475850438e-08
100                       8                       4                2.828427    7.42171679391053e-08    1.41807212729118e-07    8.50890171542576e-08
101                       8                       4                       0    1.01666516482217e-09    1.97418896997092e-09    1.76345108939841e-09
102                      10                       6                5.656854     1.4363489705026e-05    3.28938863771124e-05    1.29729818319425e-05
103                      10                       6                2.828427    3.24913499282069e-07    7.30687496855142e-07    5.52963622246956e-07
104                      10                       6                       0    1.06283603980311e-07    2.34218093328988e-07    2.59820061170394e-07
105                      12                       4                5.656854    2.62564912552132e-07    1.06715516389138e-06     3.4231148475559e-07
106                      12                       4                2.828427    2.40893642634272e-07    9.64947635016409e-07    5.95978641328906e-07
107                      12                       4                       0    2.96775972391351e-09    1.19697094783544e-08    1.09172226188234e-08
108                      14                       6                5.656854    2.11911870962485e-05     0.00015338520854338    6.33578385334372e-05
109                      14                       6                2.828427    4.14643451304994e-07    2.81215847759584e-06    2.21433875128954e-06
110                      14                       6                       0     1.2036761034502e-07    7.59312953331125e-07    8.69779142437885e-07
111                      16                       4                5.656854    9.04671566615736e-08    2.26440282158959e-06    7.39031721739923e-07
112                      16                       4                2.828427    8.44880443742256e-08     1.9394267582608e-06    1.21747616338997e-06
113                      16                       4                       0    1.02445520495514e-09    2.29469415467743e-08    2.12323631677154e-08
114                      18                       6                5.656854   -3.95120203949862e-06    0.000194820888889366     8.1233964437581e-05
115                      18                       6                2.828427   -8.61693206796387e-08    3.53206825314752e-06    2.80675991334784e-06
116                      18                       6                       0   -2.70730774058433e-08    9.41191675470531e-07    1.08738973549868e-06
117                      20                       4                5.656854   -1.96290218028705e-07    1.97126697739883e-06    6.40852197403052e-07
118                      20                       4                2.828427    -1.7909001525097e-07     1.6992264795895e-06    1.06249434423738e-06
119                      20                       4                       0    -2.1766429424227e-09    2.01889158793638e-08    1.86132368880417e-08
120                      22                       6                5.656854   -2.52461837099914e-05    0.000105566343914213    4.30784717006136e-05
121                      22                       6                2.828427   -4.97436320552256e-07      2.024035342958e-06    1.57564769740322e-06
122                      22                       6                       0   -1.44362786404795e-07    5.68339741657976e-07    6.44596394981051e-07
123                      24                       4                5.656854   -1.99786649712061e-07    5.88603420496537e-07    1.86465586594424e-07
124                      24                       4                2.828427   -1.93273670663892e-07    5.63079919401487e-07    3.43862350950681e-07
125                      24                       4                       0   -2.39106524981328e-09     7.1444184065384e-09    6.47791085437178e-09
126                      26                       6                5.656854   -7.22911900695465e-06    1.29907094880868e-05    5.02044449753712e-06
127                      26                       6                2.828427   -1.81261040533372e-07      3.200368381005e-07    2.38152211009764e-07
128                      26                       6                       0   -6.45558261924348e-08    1.12196115233607e-07    1.23160304399957e-07
129                      28                       4                5.656854    -2.8438859100424e-08    4.53464157076802e-08    1.38770303390368e-08
130                      28                       4                2.828427   -3.29286427897156e-08    5.21172074041654e-08     3.0994534184969e-08
131                      28                       4                       0   -2.92214660009241e-10    4.84787738225224e-10    4.43135224120423e-10
132                      30                       6                5.656854   -3.51457192178758e-07    3.67218566910491e-07    1.37064462060241e-07
133                      30                       6                2.828427   -1.20088911763379e-08    1.24535970868591e-08     9.0206092775668e-09
134                      30                       6                       0   -4.55526189157634e-09    4.80604417059179e-09    5.25496089526602e-09
135                       0                       8                5.656854   -4.99647576454644e-08    3.52414274408794e-08     1.6899458027223e-08
136                       0                       8                2.828427   -5.63299263447347e-08    3.92715193518964e-08    3.64015927713677e-08
137                       0                       8                       0   -8.11554252277971e-10    5.40032810612719e-10    7.49788889708301e-10
138                       2                      10                5.656854    5.30365045130398e-07    3.15991400941813e-07     2.1165923568928e-07
139                       2                      10                2.828427    1.75044396280675e-08    1.09098579337869e-08    1.39458629251487e-08
140                       2                      10                       0    7.59210303245878e-09    4.12738473049885e-09    8.27215234382352e-09
141                       4                       8                5.656854    2.64074466448854e-07    2.01314994755341e-07    9.77552876937604e-08
142                       4                       8                2.828427      2.572204356356e-07    1.96033852119358e-07    1.83007087725983e-07
143                       4                       8                       0    3.32080826400608e-09    2.49725539786358e-09    3.49648485848068e-09
144                       6                      10                5.656854    7.70114873066952e-05    5.34935582427369e-05    3.79667582574417e-05
145                       6                      10                2.828427    1.39793102158417e-06    9.75403838497483e-07    1.30813618196043e-06
146                       6                      10                       0    3.76833378419488e-07    2.63931666463618e-07    5.09775356551409e-07
147                       8                       8                5.656854    1.04783478947383e-05    1.39662667914182e-05    7.05088500662721e-06
148                       8                       8                2.828427    6.28392753554976e-06     8.1743108052522e-06    7.90247224031482e-06
149                       8                       8                       0    5.40020577179777e-08    6.86093586834319e-08    9.67784406526235e-08
150                      10                      10                5.656854     0.00180642567042974     0.00271218575438342     0.00206102591914974
151                      10                      10                2.828427    1.74225776750925e-05    2.47640703106703e-05    3.52454996171249e-05
152                      10                      10                       0    2.78526090830124e-06     3.7669624151282e-06    7.63922970177137e-06
153                      12                       8                5.656854    6.12735051255156e-05    0.000183036446466031    0.000100335791674276
154                      12                       8                2.828427    2.47102498871027e-05       7.19809859548e-05     7.4118146583978e-05
155                      12                       8                       0     1.5451906034719e-07    4.32643586912038e-07    6.40214566973276e-07
156                      14                      10                5.656854     0.00259545982160435      0.0131527619428384      0.0112810354143303
157                      14                      10                2.828427    2.00726107008655e-05    9.75463545161649e-05    0.000153076961449315
158                      14                      10                       0    2.71943354713426e-06     1.1805741868268e-05    2.56347973088648e-05
159                      16                       8                5.656854     1.2891106336023e-05    0.000416747523290454    0.000238867543545692
160                      16                       8                2.828427    6.36492963845056e-06    0.000144827558474456    0.000155161531973943
161                      16                       8                       0    4.56824707692927e-08    7.96729720275677e-07    1.21828480525973e-06
162                      18                      10                5.656854   -0.000190322016761535      0.0155925698679949      0.0137184050577345
163                      18                      10                2.828427   -2.33740579895564e-06    0.000115012391564234     0.00018457219797318
164                      18                      10                       0   -4.98303029188208e-07    1.39815233107557e-05    3.09456414685856e-05
165                      20                       8                5.656854   -4.09219067248892e-05    0.000372065641304077    0.000211392172740163
166                      20                       8                2.828427   -1.63758897775113e-05    0.000129524300557275    0.000137621450605209
167                      20                       8                       0   -1.02794888455066e-07    7.14873719822721e-07    1.08487848162032e-06
168                      22                      10                5.656854    -0.00335674737637371     0.00947899530655838     0.00784725403154411
169                      22                      10                2.828427   -2.63329374357881e-05    7.17642467522126e-05    0.000108994259462009
170                      22                      10                       0   -3.55883806533405e-06    9.11653283484309e-06     1.9337007767492e-05
171                      24                       8                5.656854   -4.13362368125593e-05    8.90630902444394e-05    4.71175975442774e-05
172                      24                       8                2.828427    -1.9034200685512e-05    3.96606375584996e-05    3.97914661509904e-05
173                      24                       8                       0   -1.30503080650533e-07    2.62179661120479e-07    3.80520574677226e-07
174                      26                      10                5.656854   -0.000790477502453337    0.000866574813811552    0.000638184504520432
175                      26                      10                2.828427   -9.10091902051203e-06    9.67671855517156e-06    1.34049916446828e-05
176                      26                      10                       0   -1.68875664479202e-06    1.74658845530766e-06     3.4648824064072e-06
177                      28                       8                5.656854    -3.3756818057112e-06    3.58319792436767e-06    1.77763093282422e-06
178                      28                       8                2.828427    -2.4051311381389e-06    2.52232157892038e-06    2.40020202756691e-06
179                      28                       8                       0   -2.41129668604496e-08    2.50205862611342e-08    3.48470349500765e-08
180                      30                      10                5.656854   -1.53344688424249e-05    8.87295553084567e-06    6.15684673732181e-06
181                      30                      10                2.828427   -3.57724141894566e-07    2.09028940591454e-07    2.75244936684386e-07
182                      30                      10                       0   -1.21090247115523e-07    7.14369540731001e-08     1.3629705214891e-07
183                       0                      12                5.656854   -6.49452087406563e-07    2.00351202261239e-07    2.17453469549576e-07
184                       0                      12                2.828427   -5.93059768764196e-07     1.9083923882224e-07    3.89203265916704e-07
185                       0                      12                       0   -7.53530033177611e-09    2.38407547297786e-09    7.14458901810896e-09
186                       2                      14                5.656854    2.72693082032186e-06      4.614807871471e-07    1.05242311008125e-06
187                       2                      14                2.828427    7.92840268818675e-08    1.46794865920705e-08      6.212242663776e-08
188                       2                      14                       0    3.20331617086871e-08    6.64014797410336e-09     3.9755009398472e-08
189                       4                      12                5.656854    4.47283705910437e-06    1.48343690381699e-06    1.67661048334801e-06
190                       4                      12                2.828427    3.23509276735698e-06    1.10962897598273e-06    2.33076869725351e-06
191                       4                      12                       0    3.26926354369946e-08    1.15739556421833e-08    3.45357593860196e-08
192                       6                      14                5.656854    0.000683558362045634    0.000120706927125746    0.000340095770139886
193                       6                      14                2.828427    9.05850770602943e-06    1.77925811759955e-06     8.5782493331701e-06
194                       6                      14                       0    1.82620529188781e-06    3.86985705292122e-07    2.50185045285108e-06
195                       8                      12                5.656854    0.000486191090693904    0.000279805814340904    0.000357119332449792
196                       8                      12                2.828427    0.000135771744260903    8.04622575054013e-05    0.000183323805364434
197                       8                      12                       0    6.47441304667461e-07    3.89216167195748e-07    1.22505162021832e-06
198                      10                      14                5.656854     0.00472701147426903     0.00679465442029153   -0.000576871145702846
199                      10                      14                2.828427     0.00014511029363656    5.95200687430256e-05    0.000328073203211432
200                      10                      14                       0    1.45068613653982e-05     6.1522200246368e-06     4.3153014760628e-05
201                      12                      12                5.656854       0.002889267913749     0.00439722681103326     0.00621194056966197