ITEM: TIMESTEP
0
ITEM: NUMBER OF ATOMS
422
ITEM: BOX BOUNDS pp pp pp
0.0000000000000000e+00 3.2000000000000000e+01
0.0000000000000000e+00 3.2000000000000000e+01
0.0000000000000000e+00 3.2000000000000000e+01
ITEM: ATOMS id xu yu zu fx fy fz
1        11.5459321938386        15.9835208156773                 8.65685     0.00283277456232869    0.000183903588472733    -0.00250597150162426
2        17.2274848400711        15.9892262416344                 8.65685    -0.00591478121566528    0.000390362009311262     0.00942802148372181
3         15.802344993917         15.987795112765                 8.65685     0.00121410458213924     8.6439161085571e-05    -0.00406189199956756
4         12.971072038949        15.9849519429358                 8.65685    -0.00560122676524526    0.000404131563613125     0.00455284045433182
5        15.1010751677692        14.7497248501637                 8.65685      0.0276206885554393      0.0190111643358202      0.0571591956424364
6        13.6748269908674        14.7482926087119                 8.65685     -0.0165376447375479      0.0380889326917074       0.128913996882469
7        13.6723418650276        17.2230222053877                 8.65685     -0.0161952558245465     -0.0384288973942384       0.124832461907412
8        15.0985900414216        17.2244544465825                 8.65685      0.0269790020647224     -0.0192437109019197      0.0556779720929452
9        12.9177569207574        13.5484462411751                 8.65685     -0.0349440251825399     -0.0147347980239115      0.0772877451200823
10        15.8605534827313        13.5514014038861                 8.65685     0.00646989325974653    -0.00481991516296772      0.0167667607361205
11        12.9128635507729         18.421345651893                 8.65685     -0.0354376327567186      0.0138873068622444      0.0782042904901693
12        15.8556601106552        18.4243008141789                 8.65685     0.00678487657644446     0.00464491604047135      0.0172626608747509
13        11.5273112602358        13.5624445878976                 8.65685      0.0212859228918773    -0.00729468438335562      0.0329491691936604
14        11.5224488081137        18.4045547622743                 8.65685      0.0218616293878545     0.00692296098312216       0.034113228798784
15         17.250968226168        13.5681922935721                 8.65685     -0.0362144027060847     -0.0208664890056151       0.121637648973062
16        17.2461057714963        18.4103024705805                 8.65685     -0.0366969114561049      0.0199609540286735       0.122576126819563
17         10.826795838139        17.1943199436399                 8.65685      0.0276459231894255     -0.0269447955403561      0.0796191965992702
18        10.8292290587396        14.7712798150634                 8.65685      0.0286175075527671      0.0266288919072962      0.0826233350851622
19        17.9466211966922        14.7784271122721                 8.65685    -0.00281217269785577      0.0410546912930267       0.134209717646736
20        17.9441879750283        17.2014672429596                 8.65685    -0.00288185880584693     -0.0412685147440516         0.1312115214353
21        19.3551350226241        14.8244350858224                 8.65685      0.0204704576967251      0.0132014365714717      0.0317816339936634
22        19.3527913622507        17.1582882295758                 8.65685      0.0201575939682809     -0.0132762839574716      0.0311643879553041
23        9.42062567316109        14.8144588294926                 8.65685     -0.0239121861119439      0.0336016922100952       0.101583219322754
24        9.41828201314539        17.1483119722736                 8.65685     -0.0230516482419369     -0.0337214142869241      0.0969401023764968
25        19.9867264607395        15.9919970781177                 8.65685    2.37593088349572e-05    1.43337685457365e-05     -0.0100389003308038
26         8.7866905744716        15.9807499786644                 8.65685    -0.00157129028584138    0.000149712708369426    -0.00780161798688823
27         20.009196045824        18.1859221409264                 8.65685   -0.000192251575268139    0.000765193017160321     -0.0011253848272531
28        20.0136022867001        13.7981215696947                 8.65685    -0.00028322819105852   -0.000827199622473219    -0.00116976955781509
29        8.75981475072747        18.1746254872963                 8.65685     -0.0142518153303952     0.00202154208158521      0.0196417829003352
30        8.76422099026049        13.7868249167297                 8.65685     -0.0141722931335097    -0.00246099193180476      0.0195492627339213
31        10.9998668222426        12.6154548000933                 8.65685    0.000922871653901671    -0.00145352705768215    -0.00762149062566418
32        10.9931035005993        19.3504833212092                 8.65685     0.00101476728636398     0.00154476176400574    -0.00736217780308469
33        17.7803135329519        12.6222637346313                 8.65685   -0.000440942646523002    -0.00312297863327167    -0.00430112524757801
34        17.7735502071424         19.357292260389                 8.65685    -0.00047502022284722     0.00320516215930634    -0.00404876725711339
35        13.3622865728669        12.5689605638796                 8.65685   -0.000844839046368569    -0.00219765234241027    -0.00632255105063949
36         13.355425108682        19.4017221461408                 8.65685   -0.000913438108737956     0.00228481484409133    -0.00607582185875053
37        15.4179919240215        12.5710249097393                 8.65685    0.000474597243879215    -0.00048286518756614    -0.00939066949380347
38         15.411130457531        19.4037864905846                 8.65685    0.000524501510713971     0.00051868940529616    -0.00930086221833434
39                       0                       0                5.656854                       0                       0                       0
40                       0                       0                2.828427                       0                       0                       0
41                       0                       0                       0                       0                       0                       0
42                       2                       2                5.656854    2.42314701395995e-09    3.80881200225501e-09    9.93757829978334e-10
43                       2                       2                2.828427    7.60372707966877e-11    1.32496853564805e-10    6.55178739143435e-11
44                       2                       2                       0                       0                       0                       0
45                       4                       0                5.656854    1.78658861933795e-10    9.62415762873347e-12    9.43959867394376e-11
46                       4                       0                2.828427                       0                       0                       0
47                       4                       0                       0                       0                       0                       0
48                       6                       2                5.656854    3.77962848291045e-08    9.58307914181095e-08    2.50049384658336e-08
49                       6                       2                2.828427    1.48939127273648e-09     3.7651668675689e-09    1.90663270340347e-09
50                       6                       2                       0    3.88935479226137e-10     1.1500226147729e-09    8.85498202463169e-10
51                       8                       0                5.656854    1.18474612144708e-09     1.0384121226312e-10    1.05881750640659e-09
52                       8                       0                2.828427    8.54492728444375e-10    6.98095220821919e-10    1.58499328849606e-09
53                       8                       0                       0                       0                       0                       0
54                      10                       2                5.656854    8.46048279942046e-08    4.92531409981672e-07     1.3135033431634e-07
55                      10                       2                2.828427    3.10161301778629e-09    1.75946034991415e-08    9.08485299386018e-09
56                      10                       2                       0    1.26290329002371e-09    7.65170582333982e-09    5.95320962843354e-09
57                      12                       0                5.656854    1.02460744238162e-09    2.70015815541437e-10    2.93020219273538e-09
58                      12                       0                2.828427     7.1320647677182e-10    2.95577281747946e-10     6.4679602614369e-09
59                      12                       0                       0                       0                       0                       0
60                      14                       2                5.656854    9.23411370690901e-09    8.04701215775314e-07    2.16452594527506e-07
61                      14                       2                2.828427    2.77613541690594e-10    2.79980714087473e-08     1.4579532211613e-08
62                      14                       2                       0    2.14515793477346e-10    1.27644717755391e-08    9.97938315534913e-09
63                      16                       0                5.656854   -7.05763264411613e-10    2.52475691808313e-10    3.15810905343019e-09
64                      16                       0                2.828427    -4.0525740459815e-10    2.61168374034599e-10     7.0665918671479e-09
65                      16                       0                       0                       0                       0                       0
66                      18                       2                5.656854   -7.81779761648183e-08    5.82229802076982e-07     1.5564140495309e-07
67                      18                       2                2.828427   -2.83873880610195e-09    2.05791703726024e-08    1.06523865300084e-08
68                      18                       2                       0   -9.98847205221299e-10    8.67241936622521e-09    6.76156911668044e-09
69                      20                       0                5.656854   -1.28540564329321e-09    9.74979285633641e-11    1.38327084508333e-09
70                      20                       0                2.828427   -8.76074499526722e-10     7.1994087393829e-11    2.27727718395712e-09
71                      20                       0                       0                       0                       0                       0
72                      22                       2                5.656854   -5.07532016124596e-08    1.44484735541724e-07    3.78559270431249e-08
73                      22                       2                2.828427   -1.92446832048183e-09    5.49244447708935e-09    2.79516599797712e-09
74                      22                       2                       0   -4.24255914895642e-10    1.51445793978744e-09    1.17130083779989e-09
75                      24                       0                5.656854   -2.45103519192828e-10    8.84211862608844e-12    1.46778692590025e-10
76                      24                       0                2.828427                       0                       0                       0
77                      24                       0                       0                       0                       0                       0
78                      26                       2                5.656854   -5.70446046331992e-09    9.65200971576272e-09    2.48167864149135e-09
79                      26                       2                2.828427   -1.75660657649281e-10    3.03624620530811e-10    1.54428358382994e-10
80                      26                       2                       0                       0                       0                       0
81                      28                       0                5.656854                       0                       0                       0
82                      28                       0                2.828427                       0                       0                       0
83                      28                       0                       0                       0                       0                       0
84                      30                       2                5.656854                       0                       0                       0
85                      30                       2                2.828427                       0                       0                       0
86                      30                       2                       0                       0                       0                       0
87                       0                       4                5.656854    1.14338745491201e-09     1.2353032718788e-09    3.75889991502035e-10
88                       0                       4                2.828427    1.07011487960811e-09     1.1949752270225e-09    7.11652773689904e-10
89                       0                       4                       0                       0                       0                       0
90                       2                       6                5.656854    4.79236182172225e-07    5.19147910944477e-07    1.94347400054133e-07
91                       2                       6                2.828427    1.60098332152212e-08    1.72108274877958e-08    1.24826918851335e-08
92                       2                       6                       0    6.99065431261725e-09    7.56667978400867e-09    8.19358502637765e-09
93                       4                       4                5.656854    3.55299351584195e-08    5.90783722156348e-08    1.81348430414414e-08
94                       4                       4                2.828427    4.03030209538747e-08    6.65309947012505e-08    3.96791655233553e-08
95                       4                       4                       0    5.49358002139848e-10     9.2586669736711e-10    8.25874445440865e-10
96                       6                       6                5.656854    8.67943223839808e-06    1.64427234925117e-05    6.38578110566733e-06
97                       6                       6                2.828427    2.12325001211068e-07    3.94815000662852e-07    2.95060094489681e-07
98                       6                       6                       0     7.4392882372019e-08    1.36331148098625e-07    1.49703311717999e-07
99                       8                       4                5.656854    2.18729864478062e-07    6.88886743579268e-07    2.18992888886756e-07
100                       8                       4                2.828427    2.08426862045397e-07    6.49171469960135e-07    3.97685854966899e-07
101                       8                       4                       0    2.59381734144039e-09    8.23345826749673e-09    7.47134912470098e-09
102                      10                       6                5.656854    2.52325431482009e-05    0.000117634335406982    4.81849229945919e-05
103                      10                       6                2.828427    4.93098232322773e-07    2.22386970682288e-06     1.7370667435554e-06
104                      10                       6                       0    1.41678118037328e-07    6.16104013198132e-07    7.00955202665272e-07
105                      12                       4                5.656854     1.7251991904007e-07    2.06409503798394e-06     6.7194306662504e-07
106                      12                       4                2.828427     1.5823566755737e-07    1.77405040738178e-06    1.11075992777466e-06
107                      12                       4                       0    1.88957254181626e-09    2.09679923508926e-08    1.93603960909259e-08
108                      14                       6                5.656854    1.88316365434983e-06    0.000196202667992913    8.18497185684623e-05
109                      14                       6                2.828427    4.26153229503984e-08    3.55761015551189e-06     2.8282601393204e-06
110                      14                       6                       0    1.35787832976688e-08    9.47864926373057e-07    1.09556411519914e-06
111                      16                       4                5.656854   -1.16938975745047e-07     2.2118302212427e-06    7.21334182350818e-07
112                      16                       4                2.828427   -1.08573568893871e-07    1.89663699493467e-06    1.18966272042369e-06
113                      16                       4                       0   -1.34458535857299e-09    2.24953702702602e-08    2.07944442460401e-08
114                      18                       6                5.656854    -2.2888037920628e-05    0.000142729334168048    5.88001864471041e-05
115                      18                       6                2.828427   -4.46268442832103e-07    2.63795951654466e-06    2.07182999833607e-06
116                      18                       6                       0   -1.28579236665569e-07    7.17019556992044e-07    8.19502374157941e-07
117                      20                       4                5.656854   -2.51684150327121e-07     9.4130109375238e-07    3.01042093290541e-07
118                      20                       4                2.828427   -2.33000810062553e-07    8.60796647837611e-07    5.30288645662029e-07
119                      20                       4                       0   -2.86707701670138e-09    1.06693744005855e-08    9.73119228103318e-09
120                      22                       6                5.656854   -1.24572168326669e-05    2.68899894720155e-05    1.05477716036373e-05
121                      22                       6                2.828427   -2.88519166332807e-07    6.11464295919238e-07    4.60713322002321e-07
122                      22                       6                       0    -9.6802306377928e-08     2.0087729097358e-07    2.21993361778594e-07
123                      24                       4                5.656854   -5.68164136941417e-08    1.04717347712221e-07    3.22938185463411e-08
124                      24                       4                2.828427   -6.19834958713772e-08    1.13414575074337e-07    6.78839297216936e-08
125                      24                       4                       0   -8.10946004281637e-10    1.50174036380944e-09    1.34927491519715e-09
126                      26                       6                5.656854   -9.38636554406685e-07    1.11749717116787e-06    4.20124476579759e-07
127                      26                       6                2.828427   -2.94885238113806e-08    3.48863356910055e-08    2.53356521917266e-08
128                      26                       6                       0   -1.26538805310517e-08    1.49943339169861e-08    1.61876661704268e-08
129                      28                       4                5.656854   -2.62401313232756e-09    3.04621109294217e-09    9.22094635416891e-10
130                      28                       4                2.828427   -2.46759157831002e-09    2.84265889127405e-09     1.7239525302456e-09
131                      28                       4                       0                       0                       0                       0
132                      30                       6                5.656854   -8.97229246569402e-09    1.70347795700617e-08    6.31388182759212e-09
133                      30                       6                2.828427   -2.32299078393493e-10    4.63442405977007e-10    3.46530278727907e-10
134                      30                       6                       0                       0                       0                       0
135                       0                       8                5.656854     7.5088630588572e-08    5.24887096136418e-08    2.52607711159302e-08
136                       0                       8                2.828427    8.11372875144988e-08    5.67264908961743e-08    5.27100926879667e-08
137                       0                       8                       0    1.09982973689751e-09    7.55464954534205e-10    1.05179948002624e-09
138                       2                      10                5.656854    2.25531621028168e-05    1.35415519966793e-05    9.45687746506542e-06
139                       2                      10                2.828427    4.98119336634051e-07    3.01902195597284e-07    3.99557887123278e-07
140                       2                      10                       0    1.59503680088155e-07    9.75363518174077e-08    1.86946195841268e-07
141                       4                       8                5.656854    4.49347291242597e-06    5.00486097310848e-06    2.49444837405199e-06
142                       4                       8                2.828427    3.07113742120064e-06    3.37186660180618e-06    3.22197839662935e-06
143                       4                       8                       0    2.96963561070841e-08    3.21742700221407e-08    4.49402572076624e-08
144                       6                      10                5.656854    0.000992444242135341     0.00116480861904261    0.000864250018149662
145                       6                      10                2.828427    1.08853880973415e-05    1.23118711079566e-05    1.71703464237009e-05
146                       6                      10                       0    1.94114992375495e-06    2.12481873287815e-06    4.23937196047609e-06
147                       8                       8                5.656854    4.66686407130141e-05    0.000107624361108073    5.74440869444492e-05
148                       8                       8                2.828427    2.07839772755642e-05    4.64470704875437e-05    4.69105547432654e-05
149                       8                       8                       0    1.39226571642172e-07    2.99533167608713e-07      4.369101211457e-07
150                      10                      10                5.656854     0.00330964444089761      0.0104516915201195     0.00873715806121517
151                      10                      10                2.828427    2.57858518867264e-05    7.84666851443753e-05    0.000120299978188531
152                      10                      10                       0    3.44735223500284e-06    9.81663469061167e-06    2.09603299848085e-05
153                      12                       8                5.656854    3.36938215886065e-05    0.000388500900024067    0.000221369835269556
154                      12                       8                2.828427    1.39292284936789e-05    0.000134673207818705    0.000143501756833749
155                      12                       8                       0    8.95209258202581e-08     7.4067834539067e-07    1.12692990554877e-06
156                      14                      10                5.656854    7.95976927654133e-05      0.0156728442434935      0.0138062668909357
157                      14                      10                2.828427    1.02905349479503e-06    0.000115332270137044    0.000185238188007342
158                      14                      10                       0     2.5041043940061e-07    1.40476628502147e-05    3.11156326264969e-05
159                      16                       8                5.656854   -1.86811361872466e-05    0.000410113529949217    0.000234612177673348
160                      16                       8                2.828427    -8.5912395909376e-06    0.000142369714758191    0.000152281764892116
161                      16                       8                       0   -5.92198174047115e-08    7.82911862343002e-07    1.19541673141153e-06
162                      18                      10                5.656854    -0.00288386442369071      0.0123882220681967      0.0105381154223583
163                      18                      10                2.828427   -2.22897611900759e-05    9.22214876540245e-05    0.000143717871529795
164                      18                      10                       0   -2.98172036392632e-06    1.12523734879993e-05    2.43035733595674e-05
165                      20                       8                5.656854   -5.73872776363731e-05    0.000157398874274539    8.55600588875102e-05
166                      20                       8                2.828427   -2.38065754305353e-05    6.36519354865448e-05    6.51256050903584e-05
167                      20                       8                       0   -1.51744484446342e-07    3.90463210905574e-07     5.7498180947338e-07
168                      22                      10                5.656854    -0.00153600910865574     0.00214462421225964     0.00161383103934368
169                      22                      10                2.828427   -1.53608541393342e-05    2.03730302076325e-05    2.87639430301041e-05
170                      22                      10                       0   -2.53247684122306e-06    3.21011721174884e-06    6.46906900889574e-06
171                      24                       8                5.656854   -8.21327065746088e-06    1.03684731910889e-05    5.20664962947493e-06
172                      24                       8                2.828427   -5.12282323848883e-06    6.33032498881696e-06    6.09066159360704e-06
173                      24                       8                       0   -4.53516930253579e-08    5.49952171073866e-08    7.73116741552054e-08
174                      26                      10                5.656854   -5.37993135869224e-05    3.57715668478164e-05    2.52225094319279e-05
175                      26                      10                2.828427   -1.03749236906369e-06    6.93994452252283e-07    9.25617151839809e-07
176                      26                      10                       0   -2.95228171855695e-07    1.98478050685429e-07    3.81752197682259e-07
177                      28                       8                5.656854   -1.83015495232679e-07    1.35047581114952e-07    6.53203262873546e-08
178                      28                       8                2.828427    -1.8544920652781e-07    1.36683911122626e-07    1.27134832003086e-07
179                      28                       8                       0    -2.5010636196877e-09     1.8180871064553e-09    2.53833039622409e-09
180                      30                      10                5.656854   -2.61820876865165e-07    2.36205806115476e-07    1.57403341256209e-07
181                      30                      10                2.828427   -8.60947912726532e-09    8.39501673523569e-09    1.07320289724134e-08
182                      30                      10                       0   -4.47954612578251e-09    3.07620892041772e-09    6.16233408754489e-09
183                       0                      12                5.656854    1.02798150169909e-06    3.15056691476286e-07    3.45390887342813e-07
184                       0                      12                2.828427    8.95757991418818e-07    2.84921736641229e-07    5.85624413165401e-07
185                       0                      12                       0    1.10033518816753e-08    3.55585400314016e-09    1.05057701464413e-08
186                       2                      14                5.656854    0.000165776267706427    2.65647632836436e-05    6.98617175141798e-05
187                       2                      14                2.828427    2.88981064804154e-06    5.02987104789096e-07    2.33391237877304e-06
188                       2                      14                       0    7.35817317970106e-07    1.36883177816615e-07    8.66732693649572e-07
189                       4                      12                5.656854    0.000157067051936647    7.41187064141028e-05    9.16406241655491e-05
190                       4                      12                2.828427    5.83233018960033e-05    2.86707565879978e-05    6.39027624986258e-05
191                       4                      12                       0    3.39180803978595e-07     1.7136180603636e-07    5.30861803922442e-07
192                       6                      14                5.656854       0.011525810249434     0.00372729944815004      0.0103223816160945
193                       6                      14                2.828427     8.9831195030554e-05    2.82093120670025e-05    0.000150333131134922
194                       6                      14                       0    1.02557303043626e-05    3.44112824777903e-06    2.35518227280045e-05
195                       8                      12                5.656854     0.00239962679041268     0.00281427204739811     0.00374299518009162
196                       8                      12                2.828427     0.00047310222562134    0.000549687804220634     0.00133787419315352
197                       8                      12                       0    1.64537340515779e-06    1.79884225445361e-06     5.9730389455965e-06
198                      10                      14                5.656854   -0.000722902475245163     -0.0348719206040693      -0.263254699739193
199                      10                      14                2.828427    0.000148230208198542    0.000162902429210395     0.00102497601768337
200                      10                      14                       0    1.47445251852627e-05     1.4643396312683e-05    0.000112165210872291
201                      12                      12                5.656854    0.000867846659906165     0.00506980380201601     0.00730849752313027