ITEM: TIMESTEP
0
ITEM: NUMBER OF ATOMS
422
ITEM: BOX BOUNDS pp pp pp
0.0000000000000000e+00 3.2000000000000000e+01
0.0000000000000000e+00 3.2000000000000000e+01
0.0000000000000000e+00 3.2000000000000000e+01
ITEM: ATOMS id xu yu zu fx fy fz
1        13.1527270108916        15.9903156327303        8.66364481705299        1.37491560061663        1.11601823041293       0.362073109177998
2        18.7876729582239        15.9494143597872         8.6170381181528         3.7280012886896        2.97999373233562       0.665853927072847
3        17.4238914978838        16.0093416167318        8.67839650396687       -3.45999699777185       -3.49689102145645      -0.642126833700113
4        14.6114666087695        16.0253465127563        8.69724456982047       -3.18298155757516       -3.52473560755096      -0.616076646052084
5        16.7038347688625         14.752484451257        8.65960960109331      -0.143753657638306      -0.197499322791724     -0.0146709440067858
6        15.2829666925414        14.7564323103859        8.66498970167398      -0.518655420530095      -0.789666342054875    -0.00667929559793943
7        15.2800167074862        17.2306970478464        8.66452484245866       0.925817456875003       0.897382873063304       0.269753800800008
8        16.7005979179516        17.2264623231126        8.65885787653004        1.76621466137606        2.29152882695454       0.608011703169231
9        14.4851655616133        13.5158548820311        8.62425864085594        3.67437084956662            3.2359788436       0.641072476212257
10         17.428912433034        13.5197603541887        8.62520895030267        1.07700879564258        1.73090334444171       0.321066678682563
11        14.5153063156204        18.4237884167405        8.65929276484751       0.929039312514631       0.857890475418467       0.236870484461232
12         17.485716528821        18.4543572323447        8.68690641816581       -4.43499147468067       -4.00978515943298      -0.527948030081259
13        13.1612612816738        13.5963946093357        8.69080002143806       -5.71113107466352       -5.43205797091236      -0.840949697827508
14        13.1441017835326        18.4262077376932        8.67850297541894      -0.319508820413745      -0.195357961993452      0.0286002210752815
15        18.8126595968547        13.5298836642587        8.61854137068665        1.27017225168323        1.32411021996277       0.379676387656713
16         18.798551482927        18.3627481820112        8.60929571143072         4.1625888812692         3.1746376348557       0.590961577513968
17         12.476366480974         17.243890586475        8.70642064283502       -3.23539133688564        -2.8329693175628      -0.314542978195573
18        12.4083194960982        14.7503702524221        8.63594043735864        4.78086059315303        5.51603863672161        1.03616176913363
19        19.5095822389507        14.7413881545305        8.61981104225843       0.697149579417696        0.57030659280753      -0.144475534561479
20         19.534556497994        17.1918357659253        8.64721852296576       -2.14306085462646       -3.40503786528118        -0.7231508360372
21        20.9470515815856         14.816351644784        8.64876655896157        2.61954679164549        3.08677566707764        0.71707459740149
22        20.9362247087999         17.141721576125        8.64028334654921        3.47018989404195        4.00991277059197       0.877914303022012
23        11.0606908987978        14.8545240551292        8.69691522563666       -4.60107190828049       -4.46540762818305       -1.13576719924288
24        11.0394891393421        17.1695190984704        8.67805712619676        -4.2202715154778       -4.61325961069511       -1.06140879711113
25        21.6274493594007        16.0327199767789        8.69757289866119       -4.91703018178521       -4.59114842431125      -0.881500007319739
26        10.3514114944406        15.9454708986334        8.62157091996896        6.48048955535492        5.46385235402658        1.28511357782012
27        21.6124510492912        18.1891771443936        8.66010500346721       -1.92730364591984        -1.0959272613962      -0.133753996952925
28        21.6370371684689        13.8215564514635        8.68028488176877      -0.539716393776103       -1.04350686360357     -0.0415384867463074
29        10.3104921508151        18.1253028873839        8.60752740008763        1.21418120225606        2.25158660059908       0.333647248317968
30        10.4110822904807          13.83368621695        8.70371130022025       0.107952105010776      -0.853466095810892       0.322071407278395
31        12.5626378665668        12.5782258444175        8.61962104432415        1.74872760146389        2.51575683005095       0.439979198112056
32        12.5596885430499        19.3170683636599        8.62343504245062       0.320957638264438       0.860789520842791       0.116037834768891
33        19.4257151229956         12.667665324675        8.70225159004367      -0.508746024109168       -1.23205398391218      -0.178829198824867
34        19.3252971759527        19.3090392291993         8.6085969688103        0.12028382154189     -0.0292337032998368      -0.131928105710678
35        14.9202048028576        12.5268787938702        8.61476822999067     -0.0191839615211458      0.0761009264248506     -0.0926175585432884
36        14.9583464690847        19.4046435065435        8.65977136040271      -0.114928370765376     -0.0241805833813832     -0.0911863798415962
37        17.0248032188738        12.5778362045916        8.66366129485232       -1.12755641717049       -1.27158775642646     -0.0106263870566845
38        16.9819611267919        19.3746171598454        8.62768066926088       0.675547235652767        1.13285697855909       0.136267420537729
39                       0                       0                5.656854                       0                       0                       0
40                       0                       0                2.828427                       0                       0                       0
41                       0                       0                       0                       0                       0                       0
42                       2                       2                5.656854    4.97361895243419e-10    6.99746406147903e-10    1.80165960697928e-10
43                       2                       2                2.828427                       0                       0                       0
44                       2                       2                       0                       0                       0                       0
45                       4                       0                5.656854                       0                       0                       0
46                       4                       0                2.828427                       0                       0                       0
47                       4                       0                       0                       0                       0                       0
48                       6                       2                5.656854    1.76036705265902e-08    3.49082998261692e-08    9.06035803301306e-09
49                       6                       2                2.828427    5.69690103183763e-10    1.10565285513546e-09    5.70631641459411e-10
50                       6                       2                       0                       0                       0                       0
51                       8                       0                5.656854    6.70784464545869e-10    5.75956475298449e-11    4.64979495649186e-10
52                       8                       0                2.828427    4.05787243281853e-10    7.54070875396976e-11    5.15363539318511e-10
53                       8                       0                       0                       0                       0                       0
54                      10                       2                5.656854     8.0118513188533e-08    3.02678405077593e-07    8.01470254908322e-08
55                      10                       2                2.828427    2.91108145253655e-09    1.09922492168165e-08    5.65632311989952e-09
56                      10                       2                       0    9.97869764873316e-10    4.15805888875592e-09     3.2437760112028e-09
57                      12                       0                5.656854    1.38444269944155e-09    3.94523346595279e-10    2.21988805545759e-09
58                      12                       0                2.828427    1.72757450636659e-09    4.81767534251757e-10    5.27873455531155e-09
59                      12                       0                       0                       0                       0                       0
60                      14                       2                5.656854    4.91765144635602e-08    7.60911722040558e-07    2.03616511315371e-07
61                      14                       2                2.828427     1.7015849844927e-09    2.64216517673544e-08    1.37412812729444e-08
62                      14                       2                       0     7.9942843885826e-10     1.1295956134245e-08     8.8539837548946e-09
63                      16                       0                5.656854   -4.71130949461661e-11    5.27821082571653e-10     3.3186518477547e-09
64                      16                       0                2.828427    1.48218686269231e-10    1.69120296551137e-09    7.79021061430374e-09
65                      16                       0                       0                       0                       0                       0
66                      18                       2                5.656854   -5.29755529486619e-08    7.43884042292734e-07    1.98841981385151e-07
67                      18                       2                2.828427   -1.83150050208272e-09    2.59342338273854e-08    1.34549160265865e-08
68                      18                       2                       0   -9.07806710457659e-10    1.11685471642899e-08    8.73027247058409e-09
69                      20                       0                5.656854   -1.34638481985998e-09    3.45052227248148e-10    2.13760637182131e-09
70                      20                       0                2.828427   -1.73594209362827e-09    3.35875539953428e-10    5.10164640585643e-09
71                      20                       0                       0                       0                       0                       0
72                      22                       2                5.656854   -7.67300091793638e-08    2.92033664871792e-07    7.70893032896763e-08
73                      22                       2                2.828427   -2.80355422877144e-09    1.06809916461161e-08    5.46637262479989e-09
74                      22                       2                       0   -9.52375509150209e-10    4.03732208553134e-09    3.12918171886272e-09
75                      24                       0                5.656854   -6.41798665019408e-10    5.67751344673884e-11    4.47610215367651e-10
76                      24                       0                2.828427   -3.64540035169044e-10    1.04912123154678e-11    4.59430154777599e-10
77                      24                       0                       0                       0                       0                       0
78                      26                       2                5.656854   -1.70092454541394e-08    3.40460480433587e-08    8.82018732961675e-09
79                      26                       2                2.828427    -5.9434051294854e-10    1.24707777234273e-09     6.2713713002015e-10
80                      26                       2                       0                       0                       0                       0
81                      28                       0                5.656854                       0                       0                       0
82                      28                       0                2.828427                       0                       0                       0
83                      28                       0                       0                       0                       0                       0
84                      30                       2                5.656854   -5.27943535619784e-10     7.4628028788834e-10    1.90865464976701e-10
85                      30                       2                2.828427                       0                       0                       0
86                      30                       2                       0                       0                       0                       0
87                       0                       4                5.656854   -1.05663033567329e-11    2.88183365483211e-10    8.89913302609368e-11
88                       0                       4                2.828427                       0                       0                       0
89                       0                       4                       0                       0                       0                       0
90                       2                       6                5.656854    9.32674379159985e-08    8.55577423112404e-08    3.19421685722884e-08
91                       2                       6                2.828427    3.46276031845139e-09    3.13029053426373e-09    2.26412245932881e-09
92                       2                       6                       0    9.56550606577775e-10    8.90886219368467e-10    9.89829850211543e-10
93                       4                       4                5.656854     1.0658137302053e-08    1.43731841011827e-08    4.41148806181194e-09
94                       4                       4                2.828427    1.27913536036705e-08    1.74871740016762e-08    1.03384812463545e-08
95                       4                       4                       0    1.40033246364291e-10      1.906067475056e-10    1.74156946012874e-10
96                       6                       6                5.656854    3.17040576213476e-06    4.61028501283849e-06    1.77104363028215e-06
97                       6                       6                2.828427    8.77423908419356e-08    1.25833215151412e-07    9.29115044548596e-08
98                       6                       6                       0    3.37977528191394e-08    4.76785849743051e-08    5.23689961946985e-08
99                       8                       4                5.656854    1.29931850159299e-07    2.97399151243088e-07    9.36538985103525e-08
100                       8                       4                2.828427    1.31825591419601e-07    2.99261197214402e-07     1.8192155735666e-07
101                       8                       4                       0      1.794582748081e-09    4.11560134752349e-09    3.70678829858833e-09
102                      10                       6                5.656854    2.23478372905552e-05    6.44015023313802e-05    2.60307708730187e-05
103                      10                       6                2.828427    4.63361587069437e-07     1.3105657675218e-06    1.01281535425007e-06
104                      10                       6                       0     1.3994797052762e-07    3.87780251515318e-07    4.37562342075093e-07
105                      12                       4                5.656854    2.72833315436629e-07    1.60108628316238e-06    5.17992297741327e-07
106                      12                       4                2.828427    2.46832385423637e-07    1.39711908532565e-06    8.71698512992222e-07
107                      12                       4                       0    3.07037194258261e-09    1.68780529539792e-08     1.5535545074652e-08
108                      14                       6                5.656854    1.25618456311174e-05    0.000188812433645539    7.84116243194879e-05
109                      14                       6                2.828427    2.62710104650676e-07    3.40588230427202e-06    2.70477466765223e-06
110                      14                       6                       0    7.97458382563356e-08    9.01622896992801e-07    1.04228158182221e-06
111                      16                       4                5.656854   -1.13490310669581e-08    2.40140878990147e-06    7.81697223856792e-07
112                      16                       4                2.828427   -8.18307917321592e-09    2.06130451131048e-06    1.29404629452188e-06
113                      16                       4                       0   -3.14929123704688e-11    2.46130044675502e-08    2.27553555972059e-08
114                      18                       6                5.656854   -1.36112086419903e-05    0.000183964738630425    7.60739378326355e-05
115                      18                       6                2.828427   -2.77023983317306e-07    3.35675300440522e-06    2.65115959617121e-06
116                      18                       6                       0   -8.18053341777427e-08    8.97469948937001e-07    1.03250353707581e-06
117                      20                       4                5.656854   -2.65935899160335e-07    1.54243169652983e-06    4.97069164150824e-07
118                      20                       4                2.828427   -2.42294526651046e-07    1.36041693004749e-06    8.43644963998124e-07
119                      20                       4                       0   -3.03945959668554e-09    1.66250908572036e-08     1.5213770583875e-08
120                      22                       6                5.656854   -2.12791400220908e-05    6.25988306884498e-05    2.50940072384774e-05
121                      22                       6                2.828427   -4.48527877593224e-07    1.29165496174118e-06    9.88932009661225e-07
122                      22                       6                       0   -1.37706925287715e-07    3.87008663239627e-07    4.33156237403036e-07
123                      24                       4                5.656854    -1.2537789330303e-07    2.92688628829145e-07    9.16126370510573e-08
124                      24                       4                2.828427   -1.28145817714201e-07     2.9623888840587e-07    1.78863697237411e-07
125                      24                       4                       0   -1.73936117061367e-09    4.00547926912814e-09    3.60071428857246e-09
126                      26                       6                5.656854   -3.17551010492021e-06    4.69596040553165e-06    1.79226772413451e-06
127                      26                       6                2.828427   -8.80032375892856e-08    1.28134385769657e-07    9.41260616775932e-08
128                      26                       6                       0   -3.43258243757323e-08    4.93717239629734e-08    5.37136335275585e-08
129                      28                       4                5.656854   -1.07475956847285e-08     1.4670713406591e-08    4.47865101785425e-09
130                      28                       4                2.828427   -1.29823804414541e-08    1.79265494070623e-08    1.05581245400513e-08
131                      28                       4                       0   -1.38979560659999e-10    1.93996762091251e-10     1.7613602180098e-10
132                      30                       6                5.656854   -9.59019795763045e-08    8.80787044219123e-08    3.28515130041423e-08
133                      30                       6                2.828427   -3.57698572014683e-09    3.24595064567805e-09    2.34626947236076e-09
134                      30                       6                       0   -1.02675698598011e-09    9.60286191575443e-10    1.06571598154789e-09
135                       0                       8                5.656854   -3.70643465895615e-10    1.24187769528629e-08    5.91695130645042e-09
136                       0                       8                2.828427   -4.93015801426875e-10    1.39931922332485e-08    1.30804168246858e-08
137                       0                       8                       0   -9.69610550635618e-12    1.40135488953452e-10    2.09011868911731e-10
138                       2                      10                5.656854     3.0416167670684e-06    1.56241012506296e-06    1.05796286029849e-06
139                       2                      10                2.828427    8.63573946729384e-08    4.48957193202479e-08    5.76834152698992e-08
140                       2                      10                       0     3.5124283649089e-08    1.83547121076863e-08    3.43807526927605e-08
141                       4                       8                5.656854    9.59383646862859e-07    8.50244711970298e-07    4.18487493712228e-07
142                       4                       8                2.828427    8.04135049038603e-07    7.09358830647503e-07    6.67136397952011e-07
143                       4                       8                       0     9.4862635203087e-09    8.32709068079305e-09    1.14847390614013e-08
144                       6                      10                5.656854    0.000261508493032618    0.000222993633209665    0.000161040511215035
145                       6                      10                2.828427    3.78043830370259e-06     3.1967835445658e-06    4.32823975504523e-06
146                       6                      10                       0     8.4628936682598e-07    7.09109604389362e-07    1.37786446704415e-06
147                       8                       8                5.656854    2.28492612942283e-05    3.73202461537628e-05    1.93816982072821e-05
148                       8                       8                2.828427    1.19609177285565e-05    1.89295762201981e-05    1.86936451100603e-05
149                       8                       8                       0    9.11112137109364e-08    1.40209853882833e-07    2.01024526940283e-07
150                      10                      10                5.656854     0.00290485591254318       0.005562116715099     0.00445533463538808
151                      10                      10                2.828427    2.45360930337607e-05     4.5111970283853e-05    6.66237318116842e-05
152                      10                      10                       0    3.54311707860633e-06     6.1993212560669e-06    1.29049173566434e-05
153                      12                       8                5.656854    6.59281668330411e-05    0.000294351192177598    0.000166143016272274
154                      12                       8                2.828427    2.50232396388033e-05    0.000105293517635207    0.000111260000162219
155                      12                       8                       0    1.49962350225775e-07    5.92996540710377e-07    8.95983492176858e-07
156                      14                      10                5.656854     0.00106477778002921      0.0152492495130297      0.0133997412585619
157                      14                      10                2.828427      1.065514433316e-05    0.000112670701325761    0.000181255673845425
158                      14                      10                       0    1.67677386956277e-06    1.34300279718689e-05    2.97960485025399e-05
159                      16                       8                5.656854   -2.57229676007082e-06    0.000436187398629683    0.000250064140542193
160                      16                       8                2.828427   -4.59923337894604e-07     0.00015244589196092    0.000163818935856195
161                      16                       8                       0   -3.57540324999348e-10    8.38026438494024e-07    1.28690264353872e-06
162                      18                      10                5.656854    -0.00115370090034936      0.0152950297312507      0.0133037539590422
163                      18                      10                2.828427   -1.06319805832592e-05    0.000113734619756741    0.000180832743955511
164                      18                      10                       0   -1.62908632056824e-06    1.36138218228631e-05    2.99700303737427e-05
165                      20                       8                5.656854   -6.37079514100312e-05    0.000285049862406193    0.000158892417250935
166                      20                       8                2.828427   -2.46222714323382e-05    0.000104442512770214    0.000109021793330547
167                      20                       8                       0   -1.49191613929497e-07    5.96447893245538e-07    8.92795304989439e-07
168                      22                      10                5.656854    -0.00282656125367945     0.00559994966598874     0.00441871147918552
169                      22                      10                2.828427   -2.43995291709879e-05    4.58732678634275e-05    6.69659761704141e-05
170                      22                      10                       0   -3.57245951247836e-06    6.32354993335259e-06    1.30620307076014e-05
171                      24                       8                5.656854   -2.25696133684673e-05    3.78565373608247e-05    1.94806515404522e-05
172                      24                       8                2.828427   -1.19027727599466e-05    1.92256978356341e-05    1.88446646036254e-05
173                      24                       8                       0   -9.13645046832231e-08     1.4251822948942e-07    2.03151480995165e-07
174                      26                      10                5.656854   -0.000270422743470659    0.000231629377020079    0.000167383993974838
175                      26                      10                2.828427   -3.87659512235661e-06    3.28596773334731e-06    4.46318002864237e-06
176                      26                      10                       0   -8.62543109143899e-07    7.22644589335555e-07    1.40879742361237e-06
177                      28                       8                5.656854   -9.90960349936756e-07    8.82373531662042e-07    4.33478881892147e-07
178                      28                       8                2.828427   -8.26658921441158e-07    7.32246196090612e-07    6.89108565610346e-07
179                      28                       8                       0   -9.69415818336689e-09    8.52974211833609e-09    1.17850613298277e-08
180                      30                      10                5.656854   -3.14506539296946e-06    1.60080919677318e-06    1.09298780487123e-06
181                      30                      10                2.828427   -8.88494580182215e-08    4.57353682655075e-08    5.93945359459787e-08
182                      30                      10                       0   -3.59266963780453e-08    1.85692817902874e-08    3.51994481164689e-08
183                       0                      12                5.656854   -1.45441310787045e-09    6.10642366954578e-08    6.36408273387795e-08
184                       0                      12                2.828427   -1.26595813509928e-09    6.82852925110022e-08    1.34543914278258e-07
185                       0                      12                       0   -2.00821937355334e-11    1.01891475848646e-09    2.85052922205693e-09
186                       2                      14                5.656854    1.86484356695193e-05    2.87676428538525e-06    6.48065928888135e-06
187                       2                      14                2.828427    4.51012039974234e-07    7.35703619531917e-08    3.02703606091483e-07
188                       2                      14                       0    1.56799215528459e-07    2.66243264595079e-08    1.53580269522614e-07
189                       4                      12                5.656854    2.21918181607173e-05     8.6753437927537e-06    9.94171986865795e-06
190                       4                      12                2.828427      1.234429743463e-05    5.00928713575542e-06    1.05101082531281e-05
191                       4                      12                       0    9.89305276395383e-08    4.13254460371943e-08    1.22340979569591e-07
192                       6                      14                5.656854     0.00305706349223071    0.000686583517300463     0.00193215376620985
193                       6                      14                2.828427    2.86374100865103e-05    7.17222682378063e-06    3.38998437733494e-05
194                       6                      14                       0    4.40660448809779e-06    1.17467255796157e-06      7.420238793328e-06
195                       8                      12                5.656854     0.00125566565519003    0.000987677063258509        0.00127500226461
196                       8                      12                2.828427    0.000275651631696013    0.000214108395164167    0.000493214008703008
197                       8                      12                       0    1.10622159854004e-06    8.45194597615411e-07     2.6871794981124e-06
198                      10                      14                5.656854     -0.0147057037178867    -0.00780590542843191      -0.109844216260558
199                      10                      14                2.828427    0.000179438912717578    0.000109970671121998    0.000620302464831739
200                      10                      14                       0    1.69667209394515e-05    1.00423007483667e-05    7.21423415911404e-05
201                      12                      12                5.656854     0.00197327282170721     0.00558838440050133     0.00791462227973612