ITEM: TIMESTEP
0
ITEM: NUMBER OF ATOMS
422
ITEM: BOX BOUNDS pp pp pp
0.0000000000000000e+00 3.2000000000000000e+01
0.0000000000000000e+00 3.2000000000000000e+01
0.0000000000000000e+00 3.2000000000000000e+01
ITEM: ATOMS id xu yu zu fx fy fz
1        14.6459321938386        15.9835208156773                 8.65685     0.00563560939782662    0.000669347377273533      0.0118609828105812
2        20.3274848400711        15.9892262416344                 8.65685    -0.00202744948610279    9.43894268875133e-05    -0.00343592553223508
3         18.902344993917         15.987795112765                 8.65685     0.00589120068749327     0.00038444509508577     0.00691225438603585
4         16.071072038949        15.9849519429358                 8.65685   -0.000434524816279147    9.37773862811769e-05    -0.00436902436897607
5        18.2010751677692        14.7497248501637                 8.65685      0.0106373505212268      0.0397071839190891        0.13480501899714
6        16.7748269908674        14.7482926087119                 8.65685     -0.0253292550052898      0.0158843178346816      0.0458273315055677
7        16.7723418650276        17.2230222053877                 8.65685     -0.0245843177532679     -0.0159752004258342       0.044036377820506
8        18.1985900414216        17.2244544465825                 8.65685      0.0102551298809564     -0.0400870307552897       0.131196561544168
9        16.0177569207574        13.5484462411751                 8.65685   -0.000824905670993741    -0.00459177703920723      0.0152100604482691
10        18.9605534827313        13.5514014038861                 8.65685      0.0365314607198317     -0.0171184406925246      0.0928350052795569
11        16.0128635507729         18.421345651893                 8.65685   -0.000607587047740284     0.00436407888792073      0.0156503578053851
12        18.9556601106552        18.4243008141789                 8.65685       0.037055511372764       0.016504213619676      0.0949205600566234
13        14.6273112602358        13.5624445878976                 8.65685      0.0336027108072975     -0.0234234963316413       0.136485740508327
14        14.6224488081137        18.4045547622743                 8.65685      0.0340609063230776      0.0221210523662189       0.139785998540992
15         20.350968226168        13.5681922935721                 8.65685     -0.0161542371454102    -0.00598842628551145      0.0252528531411826
16        20.3461057714963        18.4103024705805                 8.65685     -0.0161213704768248     0.00571992057541029      0.0254116274994875
17         13.926795838139        17.1943199436399                 8.65685    -0.00374758112900183     -0.0412772845689895       0.129945185675667
18        13.9292290587396        14.7712798150634                 8.65685    -0.00374952364865032      0.0409091303089116       0.135057320796923
19        21.0466211966922        14.7784271122721                 8.65685     -0.0283598078706996      0.0232187439178514      0.0695351262673913
20        21.0441879750283        17.2014672429596                 8.65685     -0.0277860108807775     -0.0232752051091848      0.0676604483524432
21        22.4551350226241        14.8244350858224                 8.65685        0.02015071224581      0.0364941475841857       0.110122964398245
22        22.4527913622507        17.1582882295758                 8.65685      0.0197139236844123     -0.0366324107427192       0.108039464658595
23        12.5206256731611        14.8144588294926                 8.65685     -0.0172368677928904      0.0107341371299372      0.0241735143176999
24        12.5182820131454        17.1483119722736                 8.65685     -0.0165010677873526     -0.0107258499696985      0.0226887124600294
25        23.0867264607395        15.9919970781177                 8.65685     0.00179459782903604     7.7050949453229e-05    -0.00700376674993215
26        11.8866905744716        15.9807499786644                 8.65685    0.000204187304806992    3.70318309364972e-05    -0.00999578865094028
27         23.109196045824        18.1859221409264                 8.65685      0.0157021025065834     0.00261955996460669      0.0267237320576104
28        23.1136022867001        13.7981215696947                 8.65685      0.0155980322257188    -0.00281486265741201      0.0263104688708007
29        11.8598147507275        18.1746254872963                 8.65685     0.00293070998231198    0.000767207166086939   -0.000364103200637824
30        11.8642209902605        13.7868249167297                 8.65685     0.00281168857851666    -0.00092256707814519   -0.000532267108944811
31        14.0998668222426        12.6154548000933                 8.65685    0.000203303512953077    -0.00318119304420045    -0.00420533192043894
32        14.0931035005993        19.3504833212092                 8.65685    0.000204879253218673     0.00333730834755521    -0.00374125641225103
33        20.8803135329519        12.6222637346313                 8.65685   -0.000854236015783104    -0.00117029584527862    -0.00812595915704153
34        20.8735502071424         19.357292260389                 8.65685   -0.000898538871207513     0.00118962446909232    -0.00804511818187078
35        16.4622865728669        12.5689605638796                 8.65685     -0.0003633181149033   -0.000297932165932606    -0.00968481578993696
36         16.455425108682        19.4017221461408                 8.65685   -0.000397854197564385    0.000308090647639397    -0.00963952337623098
37        18.5179919240215        12.5710249097393                 8.65685    0.000772074026188391    -0.00245238401750627    -0.00581830454581389
38         18.511130457531        19.4037864905846                 8.65685    0.000815368061879429      0.0025639163577599    -0.00552795997200886
39                       0                       0                5.656854                       0                       0                       0
40                       0                       0                2.828427                       0                       0                       0
41                       0                       0                       0                       0                       0                       0
42                       2                       2                5.656854                       0                       0                       0
43                       2                       2                2.828427                       0                       0                       0
44                       2                       2                       0                       0                       0                       0
45                       4                       0                5.656854                       0                       0                       0
46                       4                       0                2.828427                       0                       0                       0
47                       4                       0                       0                       0                       0                       0
48                       6                       2                5.656854    6.24390460676943e-09    1.07256012006668e-08      2.761037261353e-09
49                       6                       2                2.828427    1.90630693337593e-10    3.34757755392686e-10    1.70482066783479e-10
50                       6                       2                       0                       0                       0                       0
51                       8                       0                5.656854    2.56676962786925e-10    1.62616809890055e-11    1.57122236318099e-10
52                       8                       0                2.828427                       0                       0                       0
53                       8                       0                       0                       0                       0                       0
54                      10                       2                5.656854    5.31881520373396e-08    1.54885176048814e-07    4.06322329977104e-08
55                      10                       2                2.828427    2.00464477516546e-09    5.85698627221015e-09    2.98425462789673e-09
56                      10                       2                       0    4.31209970377798e-10    1.59187535132429e-09    1.23292113183466e-09
57                      12                       0                5.656854    1.29266827006549e-09    1.41306055840569e-10    1.43895867137721e-09
58                      12                       0                2.828427    1.08072857257381e-09    1.81587954944327e-09    2.54624644137063e-09
59                      12                       0                       0                       0                       0                       0
60                      14                       2                5.656854    7.64540658112449e-08    5.99366682837325e-07    1.60328809840334e-07
61                      14                       2                2.828427    2.77350189016308e-09    2.11436892179288e-08    1.09520250428357e-08
62                      14                       2                       0    9.46493921192484e-10    8.86023143180748e-09    6.91298352379463e-09
63                      16                       0                5.656854    6.48860641549448e-10    2.86244460678806e-10    3.18735904328429e-09
64                      16                       0                2.828427    3.10198775590682e-10     3.1352919301343e-10    7.09618919613511e-09
65                      16                       0                       0                       0                       0                       0
66                      18                       2                5.656854   -1.33024166347355e-08    8.02091720641675e-07    2.15730001812261e-07
67                      18                       2                2.828427   -4.27066108306557e-10    2.79198530909589e-08    1.45368837076766e-08
68                      18                       2                       0   -2.95337769893487e-10    1.27213803687731e-08    9.94524378806876e-09
69                      20                       0                5.656854   -1.07132602040639e-09    2.23987944546586e-10    2.88498001283061e-09
70                      20                       0                2.828427   -8.13956161083307e-10     2.3073436684163e-10     6.4055837528908e-09
71                      20                       0                       0                       0                       0                       0
72                      22                       2                5.656854   -8.48446921711228e-08     4.7418469670406e-07     1.2635471169174e-07
73                      22                       2                2.828427   -3.11485429015169e-09    1.69826286121888e-08    8.76182509983063e-09
74                      22                       2                       0   -1.28697144714514e-09     7.4224761129581e-09    5.77042939253263e-09
75                      24                       0                5.656854   -1.16038450181853e-09    6.98627647990462e-11    1.00889234625468e-09
76                      24                       0                2.828427   -8.02678729567257e-10     4.1578327153078e-11    1.24895704847359e-09
77                      24                       0                       0                       0                       0                       0
78                      26                       2                5.656854   -3.56726379666679e-08    8.86352360199356e-08    2.30966578704337e-08
79                      26                       2                2.828427   -1.41407595907386e-09    3.50122584365408e-09     1.7708581671161e-09
80                      26                       2                       0   -3.76469563067906e-10    1.08378328557651e-09    8.33323660175067e-10
81                      28                       0                5.656854   -1.68664476180971e-10    5.19012187837329e-12    8.74208776809945e-11
82                      28                       0                2.828427                       0                       0                       0
83                      28                       0                       0                       0                       0                       0
84                      30                       2                5.656854   -2.19699163692595e-09    3.40452959082056e-09    8.87181934797662e-10
85                      30                       2                2.828427   -6.98837305021664e-11    1.19728308258463e-10    5.91473160776029e-11
86                      30                       2                       0                       0                       0                       0
87                       0                       4                5.656854   -1.00751207563681e-09    1.07576086803555e-09    3.26928288210363e-10
88                       0                       4                2.828427   -9.53289767689078e-10    1.05109509345775e-09    6.25245030317291e-10
89                       0                       4                       0                       0                       0                       0
90                       2                       6                5.656854    1.27405138041622e-08    1.79995755305399e-08    6.70589850194682e-09
91                       2                       6                2.828427    5.40037678036053e-10    6.66313609138464e-10    4.90350324884481e-10
92                       2                       6                       0                       0                       0                       0
93                       4                       4                5.656854    3.10579641061239e-09    3.63724133966551e-09    1.09856883588434e-09
94                       4                       4                2.828427    3.47894343118848e-09    4.13332573000047e-09    2.44738644227326e-09
95                       4                       4                       0                       0                       0                       0
96                       6                       6                5.656854    1.05157235850811e-06    1.27110045061357e-06    4.78764577091208e-07
97                       6                       6                2.828427     3.2645719176406e-08     3.9201402911751e-08    2.85202859711097e-08
98                       6                       6                       0     1.3802487402612e-08    1.66080610531718e-08    1.79588423132027e-08
99                       8                       4                5.656854    6.15608669802309e-08    1.15549339295893e-07    3.56827268858573e-08
100                       8                       4                2.828427    6.65730014638674e-08    1.24009217748836e-07    7.43417030330089e-08
101                       8                       4                       0    8.60472918426237e-10    1.62396714103873e-09    1.46132404015578e-09
102                      10                       6                5.656854    1.32406156175711e-05    2.92453247985632e-05    1.15003479137765e-05
103                      10                       6                2.828427    3.03656359865655e-07    6.58495388022642e-07    4.97173867947992e-07
104                      10                       6                       0    1.00809553826867e-07    2.14073179764274e-07    2.37016506350891e-07
105                      12                       4                5.656854    2.57079722536836e-07    9.93343133281056e-07    3.18147748229002e-07
106                      12                       4                2.828427    2.36818038748118e-07    9.03503014459211e-07    5.57356687615782e-07
107                      12                       4                       0    2.88973957391036e-09    1.11247146199858e-08    1.01598180359784e-08
108                      14                       6                5.656854    2.22965865722856e-05    0.000147437673057798    6.08237414626588e-05
109                      14                       6                2.828427    4.34863232862239e-07    2.71406349605051e-06    2.13439195931477e-06
110                      14                       6                       0    1.25929928758103e-07    7.35640683058665e-07    8.41677315237545e-07
111                      16                       4                5.656854    1.05376100763548e-07    2.23743654823767e-06    7.29993408143377e-07
112                      16                       4                2.828427    9.81739121155347e-08    1.91705960365511e-06    1.20299380223681e-06
113                      16                       4                       0    1.20969070665657e-09    2.27100334387583e-08    2.10028921713083e-08
114                      18                       6                5.656854   -2.84750182945679e-06    0.000195658250420773    8.16059599024582e-05
115                      18                       6                2.828427   -6.22738218246504e-08    3.54802956409258e-06    2.82013706409581e-06
116                      18                       6                       0   -1.94935331279402e-08    9.45462818128162e-07     1.0925960792356e-06
117                      20                       4                5.656854    -1.8267787120476e-07    2.02439571367318e-06     6.5857141695851e-07
118                      20                       4                2.828427   -1.67157779856077e-07     1.7424474506533e-06    1.09025866539947e-06
119                      20                       4                       0   -2.01025814610311e-09    2.06421731532241e-08    1.90460517389757e-08
120                      22                       6                5.656854   -2.52412922902978e-05    0.000112529277516096    4.60122972467534e-05
121                      22                       6                2.828427   -4.95075751832121e-07    2.14013696506771e-06    1.66897964131601e-06
122                      22                       6                       0   -1.42826995694017e-07    5.96260117594116e-07    6.77376440571944e-07
123                      24                       4                5.656854   -2.10653801201094e-07    6.45947718633386e-07    2.05014463053255e-07
124                      24                       4                2.828427   -2.02072574283212e-07    6.12637430615131e-07    3.74745947024476e-07
125                      24                       4                       0   -2.54065418092677e-09    7.83237053894901e-09    7.09729816095389e-09
126                      26                       6                5.656854   -8.05925085917193e-06    1.49543499895576e-05    5.79398824808651e-06
127                      26                       6                2.828427   -1.99251072098564e-07    3.62977112594761e-07    2.70695157771175e-07
128                      26                       6                       0   -7.00782816300619e-08    1.25998111254949e-07    1.38280045798494e-07
129                      28                       4                5.656854   -3.24693047392116e-08    5.31185660126363e-08    1.62794247847377e-08
130                      28                       4                2.828427    -3.7142775020467e-08    6.03240541254643e-08    3.59230359730446e-08
131                      28                       4                       0   -5.12914837791923e-10    8.49381226936148e-10    7.56584942954556e-10
132                      30                       6                5.656854   -4.23846529683741e-07    4.52857547191829e-07    1.69228105953745e-07
133                      30                       6                2.828427   -1.42061549949239e-08    1.50693204464341e-08    1.09283398464961e-08
134                      30                       6                       0   -5.60629909837051e-09    6.19559707817932e-09    6.66104082349327e-09
135                       0                       8                5.656854   -6.41264457714833e-08    4.48313365613391e-08    2.15278917425935e-08
136                       0                       8                2.828427   -7.03883538987951e-08    4.90794568194515e-08     4.5524774410282e-08
137                       0                       8                       0   -9.75988480744135e-10    6.62792677344514e-10    9.21009298189994e-10
138                       2                      10                5.656854    3.59000567096879e-07    2.60764759687411e-07    1.74176915447101e-07
139                       2                      10                2.828427    1.16891534013083e-08    9.13021545656031e-09    1.16993159094247e-08
140                       2                      10                       0    5.50035633963262e-09    3.40312855237559e-09    6.78734289255136e-09
141                       4                       8                5.656854    2.11825843676381e-07    1.58104275304103e-07    7.66463880113607e-08
142                       4                       8                2.828427    2.11321410880878e-07    1.57634309609527e-07    1.46933845825271e-07
143                       4                       8                       0    2.80108588137997e-09    2.06091926174975e-09    2.88283063130917e-09
144                       6                      10                5.656854     6.2069097398017e-05    4.19108749206633e-05    2.96584484227989e-05
145                       6                      10                2.828427      1.168938615587e-06    7.93772041369421e-07    1.06196194244919e-06
146                       6                      10                       0    3.25526700014144e-07    2.22070141957261e-07    4.28254276408022e-07
147                       8                       8                5.656854    9.08368543423739e-06    1.17016889235877e-05    5.89249643639164e-06
148                       8                       8                2.828427    5.57464080584429e-06    7.02170892467256e-06    6.77265331847724e-06
149                       8                       8                       0    4.87260718040031e-08    6.01082611549232e-08     8.4679164579741e-08
150                      10                      10                5.656854     0.00164585459703869     0.00236208185023236      0.0017858125476605
151                      10                      10                2.828427    1.62074916516387e-05    2.20625707591359e-05     3.1272285195552e-05
152                      10                      10                       0    2.63707853748933e-06    3.42504570707995e-06    6.92437427427767e-06
153                      12                       8                5.656854    5.91889093582217e-05    0.000167772657097042    9.15464246992784e-05
154                      12                       8                2.828427    2.42574746812359e-05    6.70410334971467e-05    6.87969566767022e-05
155                      12                       8                       0    1.53349110746729e-07    4.07656990193301e-07    6.01689279198046e-07
156                      14                      10                5.656854     0.00278073242006177      0.0127140087238489      0.0108556981488325
157                      14                      10                2.828427    2.14794591283348e-05     9.4512284462629e-05    0.000147784864654121
158                      14                      10                       0     2.8832000650212e-06    1.14865597715336e-05    2.48738975249572e-05
159                      16                       8                5.656854    1.60374661224064e-05    0.000413730585824902     0.00023692704706683
160                      16                       8                2.828427    7.61022814958576e-06    0.000143588791387027    0.000153721607578321
161                      16                       8                       0    5.34366532398383e-08    7.89359671602534e-07    1.20620221747101e-06
162                      18                      10                5.656854   -0.000138859517514799      0.0156415853586695      0.0137714754198641
163                      18                      10                2.828427   -1.62901251024655e-06    0.000115201096013738     0.00018495983932513
164                      18                      10                       0   -3.57378874046643e-07    1.40243634501474e-05    3.10540741131085e-05
165                      20                       8                5.656854   -3.66431254398011e-05    0.000381505061614414    0.000217066389045426
166                      20                       8                2.828427   -1.49377777805415e-05    0.000132531938799919    0.000141026249505666
167                      20                       8                       0   -9.50355967290934e-08    7.30150445442461e-07    1.10955976612462e-06
168                      22                      10                5.656854    -0.00333315151916062      0.0100568017227546     0.00837127168473832
169                      22                      10                2.828427   -2.60321289884237e-05    7.57431606917749e-05    0.000115637022819406
170                      22                      10                       0   -3.49467174002167e-06    9.53603964430839e-06    2.02983066143986e-05
171                      24                       8                5.656854   -4.44339774641749e-05     9.9716357783815e-05    5.30121365565326e-05
172                      24                       8                2.828427    -2.0062272230876e-05    4.36025185267624e-05    4.39018131707091e-05
173                      24                       8                       0   -1.35655801941165e-07    2.84061074839165e-07    4.13361068910664e-07
174                      26                      10                5.656854   -0.000906935018894195     0.00103745910703726    0.000766649255519787
175                      26                      10                2.828427   -1.01429450326753e-05    1.12069541967288e-05    1.55735471828122e-05
176                      26                      10                       0   -1.83792330186596e-06    1.96880121118731e-06    3.91622791902707e-06
177                      28                       8                5.656854   -4.00950726295759e-06    4.38567713617703e-06     2.1801955685619e-06
178                      28                       8                2.828427   -2.78726138760382e-06    3.00778001481032e-06    2.86725818348062e-06
179                      28                       8                       0   -2.74019050853777e-08    2.91975915159303e-08    4.06949114165427e-08
180                      30                      10                5.656854   -1.93895101345459e-05    1.14878214911319e-05    7.99446695116415e-06
181                      30                      10                2.828427   -4.37450491273368e-07    2.61609828911387e-07    3.45310554984849e-07
182                      30                      10                       0   -1.43225318752448e-07    8.64399588371098e-08    1.65245831719947e-07
183                       0                      12                5.656854   -8.61812147323323e-07    2.64098091294219e-07    2.88142981063303e-07
184                       0                      12                2.828427   -7.65294219093832e-07    2.43850794910072e-07     4.9918838053882e-07
185                       0                      12                       0   -9.49008945631849e-09    3.04856499361946e-09    9.02697860113398e-09
186                       2                      14                5.656854    1.81898224526964e-06    3.74253100075475e-07     8.4621465154007e-07
187                       2                      14                2.828427    5.35910537467259e-08     1.2281378537994e-08    5.17761821690258e-08
188                       2                      14                       0    2.15996543222404e-08    5.50998085614386e-09    3.35707846944703e-08
189                       4                      12                5.656854    3.43940564477552e-06    1.12008952822896e-06    1.25875841755971e-06
190                       4                      12                2.828427    2.58237787732913e-06    8.68909746095954e-07    1.81792671611624e-06
191                       4                      12                       0    2.69770817009187e-08    9.32643271703369e-09    2.78712208771399e-08
192                       6                      14                5.656854    0.000531468187075362     9.2064237417252e-05    0.000256038984213418
193                       6                      14                2.828427    7.42230245729866e-06    1.42383678995096e-06    6.81612707607638e-06
194                       6                      14                       0    1.56220087604769e-06    3.22819597002829e-07    2.07896421195572e-06
195                       8                      12                5.656854    0.000401980414264106    0.000222259826986958    0.000282189993097325
196                       8                      12                2.828427    0.000117995195723598    6.74129412679497e-05    0.000152987481311653
197                       8                      12                       0     5.8222486504876e-07    3.38459372472819e-07    1.06208223874138e-06
198                      10                      14                5.656854     0.00826011557712416     0.00656140252166962     0.00599990649384496
199                      10                      14                2.828427    0.000135584681920566    5.27404294268964e-05    0.000288932445382001
200                      10                      14                       0     1.3809277594211e-05    5.59574883381725e-06    3.90639703720609e-05
201                      12                      12                5.656854     0.00286358916169222     0.00408515774905063     0.00570433729600152