ITEM: TIMESTEP
0
ITEM: NUMBER OF ATOMS
422
ITEM: BOX BOUNDS ff ff ff
0.0000000000000000e+00 2.3200000000000000e+02
0.0000000000000000e+00 2.3200000000000000e+02
0.0000000000000000e+00 2.3200000000000000e+02
ITEM: ATOMS id xu yu zu fx fy fz
1        113.150024536533        115.987613158372        108.660946342695        2.57539292337701          3.876212845416     -0.0783352545065333
2        118.806815725805        115.968557127368        108.636184885734       -1.22930600006791        3.10921204308682      -0.184596517520739
3        117.358249064322         115.94369918317        108.612758070405        4.97400441665521         3.9628484643293      -0.389200676840278
4        114.524305943869        115.938185847856         108.61008790492        8.07962626755515        7.20886797896711      -0.494938503391031
5        116.703414839858        114.752064522252        108.659193672089       -4.65653740379549       -6.72174194605257       0.196729809626585
6        115.264634861867        114.738100479711           108.646661871       0.690500314757937       -4.61394812214418      0.0100834567870042
7        115.274573752055        117.225254092415        108.659085887027       -2.50711896607846       0.255124901792845     -0.0585339568728024
8        116.663029666634        117.188894071795        108.621293625213       0.566327681398449        3.32063294274479      -0.256379177325871
9         114.48541189305        113.516101213468        108.624508972293        8.58438171556657       -6.55150098933793      -0.244952347807743
10        117.433990456645          113.5248383778        108.630290973914       -1.23716591311657       -6.24767526730277      0.0186335405380734
11        114.548742245202        118.457224346322        108.692732694429        3.07282749833054        4.77806612009539       0.339278917450658
12         117.42469429154        118.393334995063        108.625888180885       -2.35642838324548        7.68271800145613      -0.217052823222603
13        113.120128568369        113.555261896031        108.649671308134        -6.0447452275218       -7.19199292031003      0.0333483335519064
14        113.166893878626        118.448999832787        108.701299070512       -8.68496577965619        2.11832531730148      0.0325916933541881
15        118.870758121193        113.587982188597        108.676643895025        1.99186524987718        -9.9509459754604       0.108421488051508
16        118.815744620215        118.379941319299        108.626492848718        5.56352055473048        10.5824403178483      0.0508445908160524
17         112.39846931284        117.165993418341        108.628527474701        2.23467637505898        10.1800328051525      -0.445433457817468
18        112.477389810974        114.819440567297        108.705014752234       -10.0196644609737       -10.4932546932468        1.08354790766004
19        119.565515009027        114.797320924607        108.675747812335      -0.170522335199355       -4.05473272110171           0.33301589889
20        119.557773247108         117.21505251504         108.67043927208       -1.45144651712764     -0.0334796278787843       0.097182456653882
21        120.993472758965        114.862772822164        108.695191736341        4.56869044972365       -17.8901515212989       0.740416750609505
22        120.935215102649        117.140711969975        108.639277740399          12.05157736042        16.1425558482854      -0.162634397453897
23        111.062342133889         114.85617529022        108.698570460728       -14.1367339125803       -23.9371560197447       0.354637272959649
24        110.968840234541        117.098870193669        108.607412221396       -5.39948879000748          22.23707411726      -0.711056698255291
25        121.547593317892         115.95286393527        108.617720857153        8.60893562961333        9.30275715076483      -0.747037596757169
26        110.388889039233        115.982948443426        108.659052464761       -7.40081801551645       -3.33812125027044        0.12099800447854
27        121.635495017402        118.212221112504        108.683152971578        2.05728611396364       0.624050904001712     -0.0509988090877152
28        121.646041794695         113.83056107769        108.689293507995        4.82921155923586       -7.33200372016327       0.221332094485943
29        110.406330352601         118.22114108917        108.703369601874       -4.45728404677144        2.94308513841758        0.03449876810764
30        110.322805905262        113.745409831731        108.615438915001         2.0086453318335          3.126267691695        0.37105820507178
31        112.588776721457        112.604364699307        108.645763899214       -3.74116398104881       -4.07037766538739     -0.0139896799837295
32        112.603083422173        119.360463242783        108.666833921573       -2.94851274233327        4.22643582637335    -0.00955686375107844
33        119.374662854926        112.616613056605        108.651203321974        2.72403214899776       -3.86564610667394      0.0116292432449224
34        119.404683315163         119.38842536841        108.687987108021       0.314915256283615        1.60422866257712     -0.0550027420221703
35        114.929252808664        112.535926799676        108.623820235797        3.81543763364267       -4.93460520117308     -0.0942440169947861
36        115.003668281755        119.449965319214        108.705097173073        2.89482368994792        4.07023430192001      0.0770258079763705
37        117.002201003488        112.555233989205        108.641063079466       -2.55182261294197       -4.65025945523507     -0.0685115103305362
38        117.002505007411        119.395161040465         108.64822854988       -3.21295308298711        4.52642182329628       0.047180789627188
39                     100                     100              105.656854                       0                       0                       0
40                     100                     100              102.828427                       0                       0                       0
41                     100                     100                     100                       0                       0                       0
42                     102                     102              105.656854                       0                       0                       0
43                     102                     102              102.828427                       0                       0                       0
44                     102                     102                     100                       0                       0                       0
45                     104                     100              105.656854                       0                       0                       0
46                     104                     100              102.828427                       0                       0                       0
47                     104                     100                     100                       0                       0                       0
48                     106                     102              105.656854                       0                       0                       0
49                     106                     102              102.828427                       0                       0                       0
50                     106                     102                     100                       0                       0                       0
51                     108                     100              105.656854                       0                       0                       0
52                     108                     100              102.828427                       0                       0                       0
53                     108                     100                     100                       0                       0                       0
54                     110                     102              105.656854                       0                       0                       0
55                     110                     102              102.828427                       0                       0                       0
56                     110                     102                     100                       0                       0                       0
57                     112                     100              105.656854                       0                       0                       0
58                     112                     100              102.828427                       0                       0                       0
59                     112                     100                     100                       0                       0                       0
60                     114                     102              105.656854                       0                       0                       0
61                     114                     102              102.828427                       0                       0                       0
62                     114                     102                     100                       0                       0                       0
63                     116                     100              105.656854                       0                       0                       0
64                     116                     100              102.828427                       0                       0                       0
65                     116                     100                     100                       0                       0                       0
66                     118                     102              105.656854                       0                       0                       0
67                     118                     102              102.828427                       0                       0                       0
68                     118                     102                     100                       0                       0                       0
69                     120                     100              105.656854                       0                       0                       0
70                     120                     100              102.828427                       0                       0                       0
71                     120                     100                     100                       0                       0                       0
72                     122                     102              105.656854                       0                       0                       0
73                     122                     102              102.828427                       0                       0                       0
74                     122                     102                     100                       0                       0                       0
75                     124                     100              105.656854                       0                       0                       0
76                     124                     100              102.828427                       0                       0                       0
77                     124                     100                     100                       0                       0                       0
78                     126                     102              105.656854                       0                       0                       0
79                     126                     102              102.828427                       0                       0                       0
80                     126                     102                     100                       0                       0                       0
81                     128                     100              105.656854                       0                       0                       0
82                     128                     100              102.828427                       0                       0                       0
83                     128                     100                     100                       0                       0                       0
84                     130                     102              105.656854                       0                       0                       0
85                     130                     102              102.828427                       0                       0                       0
86                     130                     102                     100                       0                       0                       0
87                     100                     104              105.656854                       0                       0                       0
88                     100                     104              102.828427                       0                       0                       0
89                     100                     104                     100                       0                       0                       0
90                     102                     106              105.656854                       0                       0                       0
91                     102                     106              102.828427                       0                       0                       0
92                     102                     106                     100                       0                       0                       0
93                     104                     104              105.656854                       0                       0                       0
94                     104                     104              102.828427                       0                       0                       0
95                     104                     104                     100                       0                       0                       0
96                     106                     106              105.656854                       0                       0                       0
97                     106                     106              102.828427                       0                       0                       0
98                     106                     106                     100                       0                       0                       0
99                     108                     104              105.656854                       0                       0                       0
100                     108                     104              102.828427                       0                       0                       0
101                     108                     104                     100                       0                       0                       0
102                     110                     106              105.656854                       0                       0                       0
103                     110                     106              102.828427                       0                       0                       0
104                     110                     106                     100                       0                       0                       0
105                     112                     104              105.656854                       0                       0                       0
106                     112                     104              102.828427                       0                       0                       0
107                     112                     104                     100                       0                       0                       0
108                     114                     106              105.656854                       0                       0                       0
109                     114                     106              102.828427                       0                       0                       0
110                     114                     106                     100                       0                       0                       0
111                     116                     104              105.656854                       0                       0                       0
112                     116                     104              102.828427                       0                       0                       0
113                     116                     104                     100                       0                       0                       0
114                     118                     106              105.656854                       0                       0                       0
115                     118                     106              102.828427                       0                       0                       0
116                     118                     106                     100                       0                       0                       0
117                     120                     104              105.656854                       0                       0                       0
118                     120                     104              102.828427                       0                       0                       0
119                     120                     104                     100                       0                       0                       0
120                     122                     106              105.656854                       0                       0                       0
121                     122                     106              102.828427                       0                       0                       0
122                     122                     106                     100                       0                       0                       0
123                     124                     104              105.656854                       0                       0                       0
124                     124                     104              102.828427                       0                       0                       0
125                     124                     104                     100                       0                       0                       0
126                     126                     106              105.656854                       0                       0                       0
127                     126                     106              102.828427                       0                       0                       0
128                     126                     106                     100                       0                       0                       0
129                     128                     104              105.656854                       0                       0                       0
130                     128                     104              102.828427                       0                       0                       0
131                     128                     104                     100                       0                       0                       0
132                     130                     106              105.656854                       0                       0                       0
133                     130                     106              102.828427                       0                       0                       0
134                     130                     106                     100                       0                       0                       0
135                     100                     108              105.656854                       0                       0                       0
136                     100                     108              102.828427                       0                       0                       0
137                     100                     108                     100                       0                       0                       0
138                     102                     110              105.656854                       0                       0                       0
139                     102                     110              102.828427                       0                       0                       0
140                     102                     110                     100                       0                       0                       0
141                     104                     108              105.656854                       0                       0                       0
142                     104                     108              102.828427                       0                       0                       0
143                     104                     108                     100                       0                       0                       0
144                     106                     110              105.656854                       0                       0                       0
145                     106                     110              102.828427                       0                       0                       0
146                     106                     110                     100                       0                       0                       0
147                     108                     108              105.656854                       0                       0                       0
148                     108                     108              102.828427                       0                       0                       0
149                     108                     108                     100                       0                       0                       0
150                     110                     110              105.656854                       0                       0                       0
151                     110                     110              102.828427                       0                       0                       0
152                     110                     110                     100                       0                       0                       0
153                     112                     108              105.656854                       0                       0                       0
154                     112                     108              102.828427                       0                       0                       0
155                     112                     108                     100                       0                       0                       0
156                     114                     110              105.656854                       0                       0                       0
157                     114                     110              102.828427                       0                       0                       0
158                     114                     110                     100                       0                       0                       0
159                     116                     108              105.656854                       0                       0                       0
160                     116                     108              102.828427                       0                       0                       0
161                     116                     108                     100                       0                       0                       0
162                     118                     110              105.656854                       0                       0                       0
163                     118                     110              102.828427                       0                       0                       0
164                     118                     110                     100                       0                       0                       0
165                     120                     108              105.656854                       0                       0                       0
166                     120                     108              102.828427                       0                       0                       0
167                     120                     108                     100                       0                       0                       0
168                     122                     110              105.656854                       0                       0                       0
169                     122                     110              102.828427                       0                       0                       0
170                     122                     110                     100                       0                       0                       0
171                     124                     108              105.656854                       0                       0                       0
172                     124                     108              102.828427                       0                       0                       0
173                     124                     108                     100                       0                       0                       0
174                     126                     110              105.656854                       0                       0                       0
175                     126                     110              102.828427                       0                       0                       0
176                     126                     110                     100                       0                       0                       0
177                     128                     108              105.656854                       0                       0                       0
178                     128                     108              102.828427                       0                       0                       0
179                     128                     108                     100                       0                       0                       0
180                     130                     110              105.656854                       0                       0                       0
181                     130                     110              102.828427                       0                       0                       0
182                     130                     110                     100                       0                       0                       0
183                     100                     112              105.656854                       0                       0                       0
184                     100                     112              102.828427                       0                       0                       0
185                     100                     112                     100                       0                       0                       0
186                     102                     114              105.656854                       0                       0                       0
187                     102                     114              102.828427                       0                       0                       0
188                     102                     114                     100                       0                       0                       0
189                     104                     112              105.656854                       0                       0                       0
190                     104                     112              102.828427                       0                       0                       0
191                     104                     112                     100                       0                       0                       0
192                     106                     114              105.656854                       0                       0                       0
193                     106                     114              102.828427                       0                       0                       0
194                     106                     114                     100                       0                       0                       0
195                     108                     112              105.656854                       0                       0                       0
196                     108                     112              102.828427                       0                       0                       0
197                     108                     112                     100                       0                       0                       0
198                     110                     114              105.656854                       0                       0                       0
199                     110                     114              102.828427                       0                       0                       0
200                     110                     114                     100                       0                       0                       0
201                     112                     112              105.656854                       0                       0                       0