ITEM: TIMESTEP
0
ITEM: NUMBER OF ATOMS
422
ITEM: BOX BOUNDS ff ff ff
0.0000000000000000e+00 2.3200000000000000e+02
0.0000000000000000e+00 2.3200000000000000e+02
0.0000000000000000e+00 2.3200000000000000e+02
ITEM: ATOMS id xu yu zu fx fy fz
1        112.145932193839        115.983520815677              108.656854     0.00165920009031439      -0.001199622970032    -0.00636599622920892
2        117.827484840071        115.989226241634              108.656854    -0.00781027189452729   -0.000747778111254052      0.0185168927055662
3        116.402344993917        115.987795112765              108.656854     0.00174907053735171     0.00298652244935949    0.000861325962765734
4        113.571072038949        115.984951942936              108.656854   -8.02354878826628e-05     0.00358526977580587      0.0160755650405716
5        115.701075167769        114.749724850164              108.656854      0.0130838196047259      0.0096630799961373       0.016832801955937
6        114.274826990867        114.748292608712              108.656854       0.017209722607155      0.0410031442763255       0.128037929094965
7        114.272341865028        117.223022205388              108.656854      0.0167156762857983     -0.0336062557638229       0.123890063151839
8        115.698590041422        117.224454446583              108.656854       0.012843789288513    -0.00195623095730149      0.0160113552189595
9        113.517756920757        113.548446241175              108.656854     -0.0375181232623388     -0.0375813694650333        0.16081437008654
10        116.460553482731        113.551401403886              108.656854     -0.0390711028280608     -0.0183666633080905      0.0318875471449151
11        113.512863550773        118.421345651893              108.656854     -0.0383005378311612      0.0172792131002481       0.165076062081889
12        116.455660110655        118.424300814179              108.656854     -0.0387821549583938   -0.000664446518551756      0.0340175582367674
13        112.127311260236        113.562444587898              108.656854     0.00656362561421442     -0.0161950009599331      0.0141804651454752
14        112.122448808114        118.404554762274              108.656854     0.00652699349218303    1.44941431895335e-05      0.0162469376131773
15        117.850968226168        113.568192293572              108.656854     -0.0409479676295361      -0.041060659058052       0.188462417549441
16        117.846105771496         118.41030247058              108.656854     -0.0410147923389939      0.0242420136000323       0.192104722025047
17        111.426795838139         117.19431994364              108.656854      0.0201765130482737   -0.000559682537935313      0.0291799679043351
18         111.42922905874        114.771279815063              108.656854      0.0206976138713589     0.00991239772736582      0.0306527647890638
19        118.546621196692        114.778427112272              108.656854      0.0271032866403382      0.0324302568832581        0.10448700371614
20        118.544187975028         117.20146724296              108.656854      0.0264174410673888     -0.0233969028190128       0.101906781090127
21        119.955135022624        114.824435085822              108.656854       0.113335404410763       0.110102903495764      0.0269298666450769
22        119.952791362251        117.158288229576              108.656854        0.11123448557326    -0.00719764520852101      0.0230367142260451
23        110.020625673161        114.814458829493              108.656854     0.00258387508738295       0.145139377479891      0.0883027769513939
24        110.018282013145        117.148311972274              108.656854     0.00423046666998622     -0.0393412448927788      0.0803150703683065
25        120.586726460739        115.991997078118              108.656854     -0.0599967421457347     -0.0269234954397937      -0.036245369587362
26        109.386690574472        115.980749978664              108.656854     -0.0444026689286103     -0.0271627331046369      -0.019031437641078
27        120.609196045824        118.185922140926              108.656854      -0.183553626104865     -0.0504911760038808       0.055278618645431
28          120.6136022867        113.798121569695              108.656854      -0.189384160120804     -0.0761831194904967      0.0446376637734771
29        109.359814750727        118.174625487296              108.656854     -0.0729530724718293     -0.0553692824220166        0.12216956042111
30         109.36422099026         113.78682491673              108.656854     -0.0686340308336047     -0.0777567218168354       0.110083039254621
31        111.599866822243        112.615454800093              108.656854     -0.0366917861320485      0.0262714477114371      0.0164306885266488
32        111.593103500599        119.350483321209              108.656854     -0.0358061467105472      0.0156192994805239      0.0101113741426884
33        118.380313532952        112.622263734631              108.656854      0.0620410500445525      0.0246372024967933    -0.00976657735578594
34        118.373550207142        119.357292260389              108.656854      0.0604219076979041      0.0168957380898869     -0.0154789993479337
35        113.962286572867         112.56896056388              108.656854      0.0145400485510938      0.0129258347125019    -0.00668608059903579
36        113.955425108682        119.401722146141              108.656854      0.0146352166798894       0.014846527021787     -0.0104215306412905
37        116.017991924022        112.571024909739              108.656854      0.0126834897502046      0.0162534977414429     0.00713849930492784
38        116.011130457531        119.403786490585              108.656854      0.0120356452385647      0.0112706433611083     0.00311819420488998
39                     100                     100              105.656854       0.211951361647111       0.214048336063014      -0.975673659813052
40                     100                     100              102.828427       0.432204817849362       0.430390785158178   -0.000380587261288352
41                     100                     100                     100       0.211988546894408       0.213447634159902       0.976309503260812
42                     102                     102              105.656854      -0.344056855454536      -0.347697346392646      -0.277990237963631
43                     102                     102              102.828427     -0.0512648942678547       -0.04827365909805    0.000685291904670879
44                     102                     102                     100      -0.344210146091861      -0.346459326385339        0.27688660646044
45                     104                     100              105.656854      0.0953936018858809       0.959919913962476      -0.808984639038428
46                     104                     100              102.828427     -0.0634513307086085       0.726840908945553   -0.000196849048751752
47                     104                     100                     100      0.0959317839220225       0.959323388342215       0.809277381515425
48                     106                     102              105.656854       -0.14835174230775      -0.514437955189578       -0.38131362705352
49                     106                     102              102.828427       0.141666776981218        0.06614904308773    0.000154676067807018
50                     106                     102                     100      -0.149784083379821      -0.513477722405221       0.381136482948115
51                     108                     100              105.656854       0.109281731089636        1.05943517022753      -0.802055581061936
52                     108                     100              102.828427      -0.111353567461953       0.640369830164379    0.000468738388000844
53                     108                     100                     100       0.110488701224677         1.0596997700409       0.801221831561814
54                     110                     102              105.656854      -0.143010482517945      -0.580413491380084      -0.373456837546419
55                     110                     102              102.828427        0.14787404401408        0.13381615628825    -0.00144374696957701
56                     110                     102                     100      -0.145536492596626      -0.582030245084721       0.375893038394041
57                     112                     100              105.656854       0.132081853190888        1.10764483701105      -0.810838468579899
58                     112                     100              102.828427      -0.135788745081876       0.590016952003588     0.00138650231981335
59                     112                     100                     100       0.133075916810844        1.10949925172983       0.808496117367949
60                     114                     102              105.656854      -0.165090314697906      -0.617880567663212      -0.361159261254737
61                     114                     102              102.828427       0.169677692892894        0.17421135912352    -0.00289447640526095
62                     114                     102                     100      -0.165878871807355      -0.622333213783451       0.365931791511748
63                     116                     100              105.656854       0.167420015727715        1.14387769581008      -0.821220367467128
64                     116                     100              102.828427      -0.171420671423351       0.552314860132672     0.00165242121650018
65                     116                     100                     100        0.16704239166849        1.14623173702972       0.818444903765853
66                     118                     102              105.656854      -0.210687860784809      -0.651800195064311      -0.348179084341299
67                     118                     102              102.828427       0.215253345339904       0.208561756124671    -0.00233411735571706
68                     118                     102                     100      -0.208634725057558      -0.655126737540373       0.352051393088168
69                     120                     100              105.656854       0.223591086814933        1.18315852706764       -0.83508724437698
70                     120                     100              102.828427      -0.228963254869629       0.512485889398292    0.000945381200732316
71                     120                     100                     100       0.222312898060936        1.18421482519858       0.833466706669545
72                     122                     102              105.656854      -0.288622801891922      -0.689230890858073       -0.33062502337726
73                     122                     102              102.828427        0.29354127636416       0.245180786605573   -0.000533061687338913
74                     122                     102                     100      -0.286438911706679      -0.689255505693368       0.331581354731742
75                     124                     100              105.656854       0.326149015068815        1.23727781976364      -0.851984812175962
76                     124                     100              102.828427      -0.322870183641726       0.459062796957353    7.18855749635105e-05
77                     124                     100                     100       0.325251056178181        1.23697292502003        0.85181610524063
78                     126                     102              105.656854       -0.46108678543005      -0.728136046120808      -0.332125508900077
79                     126                     102              102.828427       0.396802656050109       0.282079554387158    0.000537029688682537
80                     126                     102                     100      -0.460411345574443      -0.726841880014419       0.331296981813747
81                     128                     100              105.656854       0.707959203176095        1.34089705592251      -0.754706975054696
82                     128                     100              102.828427      -0.280681113405851       0.395911196775441    -0.00033222332194165
83                     128                     100                     100       0.707722874056686        1.34024039465204       0.755244218919604
84                     130                     102              105.656854        -1.3402490800194      -0.708694273214793      -0.755396902321196
85                     130                     102              102.828427      -0.396156073881165       0.281026855137405    0.000672143187448821
86                     130                     102                     100        -1.3403764548702      -0.707695982737175       0.754285101203102
87                     100                     104              105.656854       0.958827383188358       0.100446870919481      -0.808317260253524
88                     100                     104              102.828427       0.727944387556968     -0.0674749091723811    -0.00116667739930248
89                     100                     104                     100       0.958295343052372      0.0988330694884282       0.810225971579251
90                     102                     106              105.656854      -0.513239313979459      -0.158032025974228      -0.383113372374204
91                     102                     106              102.828427      0.0646451782048001       0.148633979316321     0.00245001984056844
92                     102                     106                     100      -0.511985966936125      -0.154255792596235        0.37920779460867
93                     104                     104              105.656854       0.246192662940879       0.253083587339282      -0.388480935064472
94                     104                     104              102.828427      -0.179200205877323      -0.184402884621887     -0.0012796219621199
95                     104                     104                     100       0.246815512930021       0.250354324280904       0.390479434417074
96                     106                     106              105.656854      -0.230487409559527      -0.245075339310408       -0.50464927857879
97                     106                     106              102.828427        0.22356237671434       0.233048778188834     0.00234316204037051
98                     106                     106                     100      -0.233212901459519      -0.238764198555903       0.500900695623822
99                     108                     104              105.656854       0.171563230427082       0.337043732665132      -0.375753890175018
100                     108                     104              102.828427      -0.176213390773962      -0.267671200660954    0.000390097007960337
101                     108                     104                     100       0.175609225770271       0.336074122706867       0.375007642545254
102                     110                     106              105.656854      -0.179306722430802       -0.28787045395052      -0.487890156971823
103                     110                     106              102.828427       0.191005449820313       0.282961962974843    -0.00311194293753387
104                     110                     106                     100      -0.190513056424776      -0.290594512529635       0.493218814470378
105                     112                     104              105.656854        0.16767502653561       0.376379818354133      -0.391826329806778
106                     112                     104              102.828427      -0.174676707672449      -0.312734261153494     0.00406633851694346
107                     112                     104                     100       0.172118614377404       0.382558953347604       0.385119137597191
108                     114                     106              105.656854      -0.192523561680505      -0.303591010578298      -0.465374069414439
109                     114                     106              102.828427       0.200056757563148        0.30981791634559    -0.00990105150330184
110                     114                     106                     100      -0.196454824658169      -0.321494869252027       0.482350849976718
111                     116                     104              105.656854       0.201061656193112       0.405068343129999      -0.406384334724528
112                     116                     104              102.828427      -0.205311571354391      -0.344004163845441     0.00527562098847272
113                     116                     104                     100       0.199306675941699       0.413816945281277       0.397723808191473
114                     118                     106              105.656854      -0.245672110725016      -0.333303425296894      -0.452548217473624
115                     118                     106              102.828427       0.246111503168044       0.336214474240416     -0.0071810355133988
116                     118                     106                     100      -0.235606098114901      -0.345082383163078       0.464886392088764
117                     120                     104              105.656854       0.261460793134065       0.438429206414618      -0.420822719259357
118                     120                     104              102.828427      -0.265684034247682      -0.374325672207001      0.0021723076007683
119                     120                     104                     100       0.256275201003597       0.440716032090524       0.417185615897052
120                     122                     106              105.656854      -0.316809021407168      -0.366838902775524      -0.439823357251403
121                     122                     106              102.828427       0.319305777020923       0.359820252734643    0.000447696713842173
122                     122                     106                     100      -0.309401336079887      -0.362664939257915        0.43912636203159
123                     124                     104              105.656854       0.367055991958394       0.465076421589527      -0.438191536401045
124                     124                     104              102.828427       -0.36190780124937      -0.398782212928519   -0.000773242688901184
125                     124                     104                     100       0.364918006454476       0.462527984468695       0.439339332715154
126                     126                     106              105.656854      -0.464272856887597      -0.369071622219437      -0.441511246441086
127                     126                     106              102.828427       0.399857626287562       0.361792353877967     0.00274536582741599
128                     126                     106                     100      -0.464457562014933      -0.363706222236516       0.437160267296929
129                     128                     104              105.656854       0.727249734986013       0.462279677902569      -0.330695823080145
130                     128                     104              102.828427      -0.282056818978875      -0.397126437022587    -0.00131702112846022
131                     128                     104                     100       0.727462330242599       0.460067357123773       0.332803114847958
132                     130                     106              105.656854       -1.23618911077301      -0.327701870624514      -0.853383489985853
133                     130                     106              102.828427      -0.459212613430047       0.323597602927782     0.00191140081843267
134                     130                     106                     100        -1.2375433291096      -0.325301123229661       0.850285670700169
135                     100                     108              105.656854        1.06321225429927       0.117774697483082      -0.799439336813818
136                     100                     108              102.828427        0.63835093504596      -0.117552841867189    -0.00300921382135767
137                     100                     108                     100        1.06035750533856       0.114511043252404       0.804284049126929
138                     102                     110              105.656854      -0.590859709338758      -0.158143803821068      -0.380855735070319
139                     102                     110              102.828427       0.138345896300339       0.157397524578293     0.00671427902970663
140                     102                     110                     100      -0.583150335370701      -0.150849951085172       0.369966858431683
141                     104                     108              105.656854       0.336880074775768       0.191993412698765      -0.369885879121097
142                     104                     108              102.828427      -0.265613091513169       -0.18849377305709    -0.00552121952602356
143                     104                     108                     100       0.333771335888827       0.182250152958665       0.378955333833904
144                     106                     110              105.656854      -0.292905988513502      -0.225555425671707      -0.511787433803975
145                     106                     110              102.828427       0.279258946813149       0.211069988967823       0.012457260216517
146                     106                     110                     100      -0.286639748131411      -0.199149861778293       0.485726329154157
147                     108                     108              105.656854       0.213731683190685       0.248727570777419      -0.360015515991703
148                     108                     108              102.828427      -0.225328570353411      -0.242578879094081    -0.00315954822570049
149                     108                     108                     100       0.226706159248361       0.234890514795039       0.366809042339745
150                     110                     110              105.656854      -0.160030121200113      -0.234199065164299      -0.469458847907667
151                     110                     110              102.828427       0.211869382068614       0.238200396294051    -0.00272967579439482
152                     110                     110                     100      -0.220922553744339      -0.230951966816566       0.478397651404825
153                     112                     108              105.656854       0.179104258737658       0.244282063648731      -0.400414517453294
154                     112                     108              102.828427      -0.199852565224706      -0.264963177092648      0.0127557941666098
155                     112                     108                     100       0.202192687084657       0.265813394610674       0.375867775280224
156                     114                     110              105.656854      -0.198926223329692      -0.175128309826317      -0.376108174263497
157                     114                     110              102.828427       0.216943899085623       0.243486060181129     -0.0315718375858952
158                     114                     110                     100      -0.216506492147426       -0.24838525456527       0.471806032505167
159                     116                     108              105.656854        0.23168557740223        0.25156822298947      -0.424799097310038
160                     116                     108              102.828427      -0.231909557127193      -0.282321243776795      0.0185912321329585
161                     116                     108                     100       0.222809796347318       0.286169169071058       0.389085148100406
162                     118                     110              105.656854      -0.305522909303486      -0.212567860238805      -0.383326356604054
163                     118                     110              102.828427       0.273146089815359        0.26186426624056     -0.0201622996474511
164                     118                     110                     100      -0.252073654201766      -0.261401599395085       0.450109104932771
165                     120                     108              105.656854       0.299388029754312       0.302258433516426      -0.421286851765311
166                     120                     108              102.828427      -0.290803909059262      -0.308121030451461     0.00382140122960477
167                     120                     108                     100       0.274533649461822       0.302258871184867        0.41484449417599
168                     122                     110              105.656854      -0.333816270633357      -0.300940479838489      -0.443657763171574
169                     122                     110              102.828427        0.32868234757108       0.281045604997192     0.00987615292135374
170                     122                     110                     100      -0.313957860641922      -0.267268564828363       0.416285858519432
171                     124                     108              105.656854        0.36923542347194       0.320295755791141      -0.431023617618305
172                     124                     108              102.828427      -0.365321361248966      -0.317068772415451    -0.00579838420587686
173                     124                     108                     100        0.36783882528653       0.306085551556696       0.441339052730804
174                     126                     110              105.656854      -0.435384607930573       -0.26960401014981      -0.431020062059764
175                     126                     110              102.828427       0.377914809788283       0.267149979195008     0.00979687514019848
176                     126                     110                     100        -0.4454699428292       -0.25535561424411       0.413979906437854
177                     128                     108              105.656854       0.687472971250032       0.291915942567932      -0.327236898183275
178                     128                     108              102.828427       -0.24576773261091      -0.294640133014157     -0.0042071577759144
179                     128                     108                     100        0.69102610298538        0.28621432652264       0.333971538743479
180                     130                     110              105.656854       -1.18021586605504      -0.226368666693169      -0.837978807086498
181                     130                     110              102.828427       -0.51300029393205       0.230330618723476     0.00432054377763621
182                     130                     110                     100       -1.18521408295452      -0.222661239262749       0.831041294853126
183                     100                     112              105.656854        1.12011132601948       0.139404413544083      -0.805070399719923
184                     100                     112              102.828427       0.582959225917543      -0.140778800300391    -0.00572630364003291
185                     100                     112                     100        1.11258943671501       0.136062163727972       0.814264119040624
186                     102                     114              105.656854      -0.642980550622129      -0.171836782741058      -0.375356074803791
187                     102                     114              102.828427       0.185425818137287       0.173622809403721      0.0114696483848108
188                     102                     114                     100      -0.625998000164221       -0.16787809826194       0.356319215868906
189                     104                     112              105.656854       0.405099204441169       0.192480034857533      -0.367510235317404
190                     104                     112              102.828427      -0.320789225875233        -0.1869056961685      -0.015028049639648
191                     104                     112                     100       0.383501784369937        0.17776666677585       0.395783345935446
192                     106                     114              105.656854      -0.353036572368621      -0.208026865807701      -0.539813380029644
193                     106                     114              102.828427       0.315844767633352       0.207985004258247      0.0275913971808267
194                     106                     114                     100      -0.319797437064386      -0.199582079709061       0.466716251243236
195                     108                     112              105.656854       0.250809497516966       0.270340316860477      -0.280868167114659
196                     108                     112              102.828427      -0.252680516551485      -0.221709420005062     -0.0189946809894121
197                     108                     112                     100       0.258742027300947       0.210223779008118       0.387055410828325
198                     110                     114              105.656854     -0.0657964474636835      -0.203138305670071       -0.74285475725012
199                     110                     114              102.828427       0.216455451098439       0.223355801718094     0.00019836772979135
200                     110                     114                     100      -0.238250480068176      -0.219348003263948       0.461622570140335
201                     112                     112              105.656854       0.132509665523781        0.20545650461445      -0.487998433350331