ITEM: TIMESTEP
0
ITEM: NUMBER OF ATOMS
422
ITEM: BOX BOUNDS ff ff ff
0.0000000000000000e+00 2.3200000000000000e+02
0.0000000000000000e+00 2.3200000000000000e+02
0.0000000000000000e+00 2.3200000000000000e+02
ITEM: ATOMS id xu yu zu fx fy fz
1        113.131435064012        115.969023685851        108.642356870173      0.0730050797698309        1.50853907183831      0.0189404749586607
2        118.852407070332        116.014148471895        108.681776230261       0.424727595684694      -0.762201338973473      0.0591355976139631
3        117.406346315085        115.991796433933        108.660855321168      -0.556192320434371       0.820970745803411     -0.0175522349684852
4        114.597581818638        116.011461722624        108.683363779689        -1.5405241495978       -1.38637105883317     0.00857384654102107
5        116.662946945342        114.711596627736        108.618725777572         2.2614323908641        1.34002498339317     -0.0585429831393457
6        115.258903457197        114.732369075041        108.640930466329        1.22477090343329      0.0394694198958306     -0.0504569366905896
7        115.257458399669        117.208138740029        108.641970534642       0.814012835744075       0.241815652144273     -0.0525356653408051
8        116.697543846896        117.223408252057        108.655807805475       0.330262331363419      -0.479382006559755      0.0360672677646311
9        114.548028200905        113.578717521323        108.687125280147       -1.43954217866841       -1.42899188899935      0.0595310817357686
10        117.469450847105        113.560298768259        108.665751364373        -1.3503748377899       -3.10399745656892      0.0977589249883861
11        114.530313391498        118.438795492618        108.674303840725        -1.1907862282684       0.494020143700281      0.0144755482138502
12        117.410855855929        118.379496559453        108.612049745274        0.65279717507227       0.917933975899682     -0.0215547105959405
13        113.107322629427        113.542455957088        108.636865369191      -0.727399890002159       0.583773619051401      0.0411943417048777
14        113.138993030323        118.421098984484         108.67339822221      -0.903469356945392      -0.231729619908167    -0.00500779654013021
15        118.805551386449        113.522775453853        108.611437160281        1.46113623320318        1.90669788328344     -0.0473506341918712
16        118.827620559327        118.391817258411        108.638368787831        1.93996386788325       0.756970834502316     -0.0751265960970667
17        112.427499933268        117.195024038769        108.657558095129       0.208709603058522       -1.93897630489131     -0.0405354398523394
18        112.386583580847        114.728634337171        108.614208522108        1.08611025386431        1.21222294755871    0.000522908728885571
19        119.565243727266        114.797049642846        108.675476530574      -0.628958682222996       0.824885349556733     -0.0195276209490309
20        119.591997103561        117.249276371493        108.704663128533       -2.32591366150338        -2.8652374534256      0.0673008062196244
21        120.985033998958        114.854334062156        108.686752976334      -0.885164413344734      0.0930820570339464      0.0260543125415766
22        120.938987864482        117.144484731807        108.643050502231      -0.304354110239776        1.77547213817434      0.0177391353848032
23        111.017195712452        114.811028868784        108.653424039291         1.4200010754346      -0.587227924557113     -0.0951454311317191
24        110.988649758459        117.118679717588        108.627221745314        2.90437337288639        1.19534307564911      -0.142686861315815
25        121.554693094741         115.95996371212        108.624820634002        1.36917298295993      -0.295181202130402      -0.108327315405545
26         110.41960646436        116.013665868553        108.689769889889       -2.88750021432496       0.298386697576729       0.238754133316519
27        121.649271829186        118.225997924288        108.696929783362      0.0549536105678323     -0.0350923241383078     -0.0200421545323048
28        121.643862041852        113.828381324847        108.687113755152     -0.0673881129060387     -0.0432743142914566   -0.000617171146875418
29        110.379431875242        118.194242611811        108.676471124514       -1.27005630378564      -0.721007224559188       0.035484797399349
30        110.348085256556        113.770689183025        108.640718266295      -0.298908532033513       0.192114549243293      0.0108953899061231
31        112.600349625314        112.615937603165        108.657336803072     0.00122474970009184    -0.00066537025919508    0.000216754599019861
32        112.560956168671        119.318335989281        108.624706668071       0.340483403388062       0.219574330900138     0.00407169274861478
33        119.412256012001        112.654206213681         108.68879647905      -0.800495217126487      -0.558006493328369      0.0128862955130324
34        119.356742229714         119.34048428296        108.640046022571      -0.181366572172568       0.101179609660004     -0.0123868296171018
35        114.930862477778        112.537536468791        108.625429904911        1.34859127739777       0.496195548818208    -0.00555045330594781
36          114.9535446982        119.399841735659        108.654973589518       0.827708432389592      -0.364805450691824      -0.014629215963779
37        116.986530367173        112.539563352891        108.625392443152      -0.405432420970496       0.190589899367337      0.0309661205320414
38         116.99292747867        119.385583511724        108.638651021139      -0.979609972328174      -0.407115100935043     0.00700662037394429
39                     100                     100              105.656854                       0                       0                       0
40                     100                     100              102.828427                       0                       0                       0
41                     100                     100                     100                       0                       0                       0
42                     102                     102              105.656854                       0                       0                       0
43                     102                     102              102.828427                       0                       0                       0
44                     102                     102                     100                       0                       0                       0
45                     104                     100              105.656854                       0                       0                       0
46                     104                     100              102.828427                       0                       0                       0
47                     104                     100                     100                       0                       0                       0
48                     106                     102              105.656854                       0                       0                       0
49                     106                     102              102.828427                       0                       0                       0
50                     106                     102                     100                       0                       0                       0
51                     108                     100              105.656854                       0                       0                       0
52                     108                     100              102.828427                       0                       0                       0
53                     108                     100                     100                       0                       0                       0
54                     110                     102              105.656854                       0                       0                       0
55                     110                     102              102.828427                       0                       0                       0
56                     110                     102                     100                       0                       0                       0
57                     112                     100              105.656854                       0                       0                       0
58                     112                     100              102.828427                       0                       0                       0
59                     112                     100                     100                       0                       0                       0
60                     114                     102              105.656854                       0                       0                       0
61                     114                     102              102.828427                       0                       0                       0
62                     114                     102                     100                       0                       0                       0
63                     116                     100              105.656854                       0                       0                       0
64                     116                     100              102.828427                       0                       0                       0
65                     116                     100                     100                       0                       0                       0
66                     118                     102              105.656854                       0                       0                       0
67                     118                     102              102.828427                       0                       0                       0
68                     118                     102                     100                       0                       0                       0
69                     120                     100              105.656854                       0                       0                       0
70                     120                     100              102.828427                       0                       0                       0
71                     120                     100                     100                       0                       0                       0
72                     122                     102              105.656854                       0                       0                       0
73                     122                     102              102.828427                       0                       0                       0
74                     122                     102                     100                       0                       0                       0
75                     124                     100              105.656854                       0                       0                       0
76                     124                     100              102.828427                       0                       0                       0
77                     124                     100                     100                       0                       0                       0
78                     126                     102              105.656854                       0                       0                       0
79                     126                     102              102.828427                       0                       0                       0
80                     126                     102                     100                       0                       0                       0
81                     128                     100              105.656854                       0                       0                       0
82                     128                     100              102.828427                       0                       0                       0
83                     128                     100                     100                       0                       0                       0
84                     130                     102              105.656854                       0                       0                       0
85                     130                     102              102.828427                       0                       0                       0
86                     130                     102                     100                       0                       0                       0
87                     100                     104              105.656854                       0                       0                       0
88                     100                     104              102.828427                       0                       0                       0
89                     100                     104                     100                       0                       0                       0
90                     102                     106              105.656854                       0                       0                       0
91                     102                     106              102.828427                       0                       0                       0
92                     102                     106                     100                       0                       0                       0
93                     104                     104              105.656854                       0                       0                       0
94                     104                     104              102.828427                       0                       0                       0
95                     104                     104                     100                       0                       0                       0
96                     106                     106              105.656854                       0                       0                       0
97                     106                     106              102.828427                       0                       0                       0
98                     106                     106                     100                       0                       0                       0
99                     108                     104              105.656854                       0                       0                       0
100                     108                     104              102.828427                       0                       0                       0
101                     108                     104                     100                       0                       0                       0
102                     110                     106              105.656854                       0                       0                       0
103                     110                     106              102.828427                       0                       0                       0
104                     110                     106                     100                       0                       0                       0
105                     112                     104              105.656854                       0                       0                       0
106                     112                     104              102.828427                       0                       0                       0
107                     112                     104                     100                       0                       0                       0
108                     114                     106              105.656854                       0                       0                       0
109                     114                     106              102.828427                       0                       0                       0
110                     114                     106                     100                       0                       0                       0
111                     116                     104              105.656854                       0                       0                       0
112                     116                     104              102.828427                       0                       0                       0
113                     116                     104                     100                       0                       0                       0
114                     118                     106              105.656854                       0                       0                       0
115                     118                     106              102.828427                       0                       0                       0
116                     118                     106                     100                       0                       0                       0
117                     120                     104              105.656854                       0                       0                       0
118                     120                     104              102.828427                       0                       0                       0
119                     120                     104                     100                       0                       0                       0
120                     122                     106              105.656854                       0                       0                       0
121                     122                     106              102.828427                       0                       0                       0
122                     122                     106                     100                       0                       0                       0
123                     124                     104              105.656854                       0                       0                       0
124                     124                     104              102.828427                       0                       0                       0
125                     124                     104                     100                       0                       0                       0
126                     126                     106              105.656854                       0                       0                       0
127                     126                     106              102.828427                       0                       0                       0
128                     126                     106                     100                       0                       0                       0
129                     128                     104              105.656854                       0                       0                       0
130                     128                     104              102.828427                       0                       0                       0
131                     128                     104                     100                       0                       0                       0
132                     130                     106              105.656854                       0                       0                       0
133                     130                     106              102.828427                       0                       0                       0
134                     130                     106                     100                       0                       0                       0
135                     100                     108              105.656854                       0                       0                       0
136                     100                     108              102.828427                       0                       0                       0
137                     100                     108                     100                       0                       0                       0
138                     102                     110              105.656854                       0                       0                       0
139                     102                     110              102.828427                       0                       0                       0
140                     102                     110                     100                       0                       0                       0
141                     104                     108              105.656854                       0                       0                       0
142                     104                     108              102.828427                       0                       0                       0
143                     104                     108                     100                       0                       0                       0
144                     106                     110              105.656854                       0                       0                       0
145                     106                     110              102.828427                       0                       0                       0
146                     106                     110                     100                       0                       0                       0
147                     108                     108              105.656854                       0                       0                       0
148                     108                     108              102.828427                       0                       0                       0
149                     108                     108                     100                       0                       0                       0
150                     110                     110              105.656854                       0                       0                       0
151                     110                     110              102.828427                       0                       0                       0
152                     110                     110                     100                       0                       0                       0
153                     112                     108              105.656854                       0                       0                       0
154                     112                     108              102.828427                       0                       0                       0
155                     112                     108                     100                       0                       0                       0
156                     114                     110              105.656854                       0                       0                       0
157                     114                     110              102.828427                       0                       0                       0
158                     114                     110                     100                       0                       0                       0
159                     116                     108              105.656854                       0                       0                       0
160                     116                     108              102.828427                       0                       0                       0
161                     116                     108                     100                       0                       0                       0
162                     118                     110              105.656854                       0                       0                       0
163                     118                     110              102.828427                       0                       0                       0
164                     118                     110                     100                       0                       0                       0
165                     120                     108              105.656854                       0                       0                       0
166                     120                     108              102.828427                       0                       0                       0
167                     120                     108                     100                       0                       0                       0
168                     122                     110              105.656854                       0                       0                       0
169                     122                     110              102.828427                       0                       0                       0
170                     122                     110                     100                       0                       0                       0
171                     124                     108              105.656854                       0                       0                       0
172                     124                     108              102.828427                       0                       0                       0
173                     124                     108                     100                       0                       0                       0
174                     126                     110              105.656854                       0                       0                       0
175                     126                     110              102.828427                       0                       0                       0
176                     126                     110                     100                       0                       0                       0
177                     128                     108              105.656854                       0                       0                       0
178                     128                     108              102.828427                       0                       0                       0
179                     128                     108                     100                       0                       0                       0
180                     130                     110              105.656854                       0                       0                       0
181                     130                     110              102.828427                       0                       0                       0
182                     130                     110                     100                       0                       0                       0
183                     100                     112              105.656854                       0                       0                       0
184                     100                     112              102.828427                       0                       0                       0
185                     100                     112                     100                       0                       0                       0
186                     102                     114              105.656854                       0                       0                       0
187                     102                     114              102.828427                       0                       0                       0
188                     102                     114                     100                       0                       0                       0
189                     104                     112              105.656854                       0                       0                       0
190                     104                     112              102.828427                       0                       0                       0
191                     104                     112                     100                       0                       0                       0
192                     106                     114              105.656854                       0                       0                       0
193                     106                     114              102.828427                       0                       0                       0
194                     106                     114                     100                       0                       0                       0
195                     108                     112              105.656854                       0                       0                       0
196                     108                     112              102.828427                       0                       0                       0
197                     108                     112                     100                       0                       0                       0
198                     110                     114              105.656854                       0                       0                       0
199                     110                     114              102.828427                       0                       0                       0
200                     110                     114                     100                       0                       0                       0
201                     112                     112              105.656854                       0                       0                       0