ITEM: TIMESTEP
0
ITEM: NUMBER OF ATOMS
422
ITEM: BOX BOUNDS ff ff ff
0.0000000000000000e+00 2.3200000000000000e+02
0.0000000000000000e+00 2.3200000000000000e+02
0.0000000000000000e+00 2.3200000000000000e+02
ITEM: ATOMS id xu yu zu fx fy fz
1        113.157833972141        115.995422593979        108.668755778302    -0.00389772828588355    -0.00110764368856978     0.00606483674554605
2        118.789349757529        115.951091159092        108.618718917458     0.00227157815890967    0.000710281826619202      0.0130533818388987
3        117.393042545373        115.978492664221        108.647551551456   -0.000765065979336665     0.00366859726767879      0.0142185497194598
4        114.541185217491        115.955065121478        108.626967178542      0.0070135229657302     0.00488229371987799      0.0182810673280966
5        116.727259569131        114.775909251526        108.683038401362     -0.0154615808549985      0.0157650475906417      0.0351632810782194
6        115.277597746852        114.751063364696        108.659624755984       0.025389740605303      0.0166588281266607      0.0407561681131939
7        115.264584089576        117.215264429936        108.649096224548      0.0257154962377696    -0.00997786201467663      0.0419964299756246
8         116.68354535601        117.209409761171        108.641809314588     -0.0172132965967728    -0.00912756682573281      0.0389254059131604
9        114.490450752238        113.521140072656        108.629547831481       0.031991546078032     -0.0418207962392396       0.174103761479327
10        117.428261452613        113.519109373767        108.624561969881      -0.054943056185828       -0.04122487566849       0.167638592707484
11        114.498279094266        118.406761195386        108.642269543493      0.0319630411886624      0.0177234040003191       0.174655148265199
12        117.447294433394        118.415935136918        108.648488322739     -0.0516697628706271      0.0173629038918912       0.164340519645435
13        113.112837332359        113.547970660021        108.642380072124     -0.0302853535875053     -0.0318575977396888       0.112604061898912
14        113.139449504272        118.421555458433        108.673854696159       -0.02747927397703      0.0128669192727124       0.107015403635762
15        118.894674126449        113.611898193853        108.700559900281     0.00765607659137233     -0.0251796545365253      0.0944735953478779
16        118.859877871516          118.4240745706         108.67062610002      0.0118567388882656       0.013913011316054       0.109970984398227
17        112.400396222675        117.167920328176        108.630454384536    -0.00817704193998962     0.00207131999331609      0.0229588535995235
18        112.459210531876        114.801261288199        108.686835473136     -0.0079622194153991     0.00723030081171583      0.0191065831687731
19        119.576959378855        114.808765294435        108.687192182163      0.0168722193132588     0.00668152553219695      0.0159258964278644
20        119.554178878867        117.211458146799        108.666844903839      0.0184042596671709     0.00165373343102287      0.0197208306164921
21        120.977867436781        114.847167499979        108.679586414157       0.133005558338469       0.125812786323097      0.0291121119826585
22         120.98378051854        117.189277385865         108.68784315629       0.129538156050399     -0.0235873134940543      0.0238103545711939
23        111.059671687441        114.853504843773         108.69590001428     -0.0155012902340165       0.125100392269779      0.0491121798372034
24        111.043305078693        117.173335037821        108.681877065548     -0.0140081947725825     -0.0214675219284699      0.0485615810464921
25        121.578693624512         115.98396424189        108.648821163772     -0.0579554297313058     -0.0259276577515972     0.00353841524519238
26        110.353316667223        115.947376071415        108.623480092751     -0.0092204094321503     -0.0253426964948088    -0.00815522889455082
27        121.610057342809        118.186783437912        108.657715296985      -0.173900864209662     -0.0462082420089726       0.184816975583596
28        121.624903946355         113.80942322935        108.668155659655       -0.17832914615724     -0.0790509610633994       0.171880871825709
29        110.353298164931          118.1681089015        108.650337414204      0.0289655019991005     -0.0549373675726807       0.159009923348119
30         110.39762788419         113.82023181066         108.69026089393       0.029996923313386     -0.0776339103610447       0.126103510860477
31        112.553756356797        112.569344334647        108.610743534554     -0.0172655580854773      0.0288661584281451        0.01622830825393
32        112.555669354999        119.313049175609          108.6194198544     -0.0152861096648367      0.0161095367541667     0.00698948847525537
33        119.414091592313        112.656041793993        108.690632059361      0.0600366236154146      0.0274632194452392     0.00520935046143449
34        119.369490654109        119.353232707356        108.652794446967      0.0550213478811633      0.0140266027817446    0.000325503585002546
35        114.939768145576        112.546442136589        108.634335572709     0.00416783837026419      0.0146841366781251    -0.00038792677925436
36        114.995619801151        119.441916838609        108.697048692469     0.00336791507906945      0.0141816245005975    -0.00397364314818262
37        116.990653372929        112.543686358646        108.629515448907      0.0231748525759357       0.014700229076121   -0.000908387628061697
38        116.964101787598        119.356757820652        108.609825330067       0.022716648155182      0.0111118826717126    -0.00488507002409513
39                     100                     100              105.656854       0.212180534969643       0.214034542602452      -0.975685749883513
40                     100                     100              102.828427       0.432000750589431       0.430375944431725   -0.000377584796489835
41                     100                     100                     100       0.212156094059315       0.213486213467251       0.976324205726925
42                     102                     102              105.656854      -0.344499769735726      -0.347669941249157      -0.277970924694229
43                     102                     102              102.828427     -0.0508910178040815      -0.048234258771257    0.000689832460441874
44                     102                     102                     100      -0.344493125921816      -0.346541879959221       0.276842805683713
45                     104                     100              105.656854      0.0957533630858376       0.960154510696392      -0.808945187041407
46                     104                     100              102.828427     -0.0637375651803096       0.726622700791635   -0.000275132814210553
47                     104                     100                     100      0.0961337224640924       0.959509577060046       0.809378785222376
48                     106                     102              105.656854      -0.149026525614016      -0.515016583907298      -0.381446987559402
49                     106                     102              102.828427       0.142145588967872       0.066632202721674    0.000371011854424864
50                     106                     102                     100       -0.15007306271167       -0.51383806995699       0.380899634279269
51                     108                     100              105.656854       0.109472059196337        1.06011230552869      -0.801921023537964
52                     108                     100              102.828427      -0.111474346319915       0.639841820224165    0.000262847040790425
53                     108                     100                     100       0.110544356890755        1.06006941157028       0.801433717707746
54                     110                     102              105.656854      -0.142998281116839      -0.581817641221123      -0.373802441583437
55                     110                     102              102.828427       0.147801182427605       0.134786274417145   -0.000989166605593392
56                     110                     102                     100      -0.145432181700146      -0.582619752380832       0.375493128382606
57                     112                     100              105.656854       0.131621581685692        1.10836094516735       -0.81069876810709
58                     112                     100              102.828427      -0.135412931124672       0.589489434001449     0.00118378213604851
59                     112                     100                     100       0.132795033796264         1.1098438781016       0.808690372775395
60                     114                     102              105.656854      -0.163780008848574      -0.618626366688977      -0.361325357446374
61                     114                     102              102.828427       0.168712939320584       0.174719625417286    -0.00267503958584651
62                     114                     102                     100      -0.165243807842532       -0.62263923554304        0.36574014957934
63                     116                     100              105.656854       0.166605464216027        1.14383705390861      -0.821254530748346
64                     116                     100              102.828427       -0.17078419527229       0.552324397960163     0.00168197697775336
65                     116                     100                     100       0.166592846648225         1.1462450768408       0.818430758798558
66                     118                     102              105.656854      -0.209582256232301      -0.650894243621628      -0.347901405044792
67                     118                     102              102.828427        0.21442063318744       0.208008552187405    -0.00265064861358412
68                     118                     102                     100      -0.208068816799935      -0.654850006439565       0.352285723291486
69                     120                     100              105.656854       0.223260592862355         1.1824924705725      -0.835264666556898
70                     120                     100              102.828427      -0.228676527864925       0.512947904625495     0.00116905130493553
71                     120                     100                     100       0.222081931515465        1.18394091791788       0.833273804375118
72                     122                     102              105.656854      -0.288818763643151      -0.688087813638229      -0.330282131671554
73                     122                     102              102.828427       0.293605882032164        0.24441377752785   -0.000953640654702389
74                     122                     102                     100      -0.286407551112717      -0.688812055488681       0.331932009117591
75                     124                     100              105.656854       0.326368206623742        1.23678736398244      -0.852121980313947
76                     124                     100              102.828427      -0.323009040500071       0.459434705303294     0.00025404939395382
77                     124                     100                     100       0.325313186028109        1.23672266409267        0.85164175339208
78                     126                     102              105.656854      -0.461662895737202      -0.727837026248991      -0.332009990864001
79                     126                     102              102.828427       0.397211220834105       0.281820512449285    0.000378396825185315
80                     126                     102                     100      -0.460653415859287      -0.726641891122946        0.33146250160824
81                     128                     100              105.656854       0.708238495170918         1.3407936826662      -0.754753413460463
82                     128                     100              102.828427      -0.280899542512092       0.396010833613132    -0.00027059059743042
83                     128                     100                     100       0.707871955450463        1.34015113219132       0.755174395724194
84                     130                     102              105.656854       -1.34054505311127       -0.70881211096602      -0.755399071629756
85                     130                     102              102.828427       -0.39590630712199       0.281082619243258    0.000677109914442923
86                     130                     102                     100       -1.34056463162201      -0.707699036003694       0.754298231197908
87                     100                     104              105.656854       0.959138130053716       0.100131401853025      -0.808424617771375
88                     100                     104              102.828427       0.727633024966975      -0.067308911950223    -0.00105633418223767
89                     100                     104                     100       0.958570208231945      0.0987882304098057       0.810172893773099
90                     102                     106              105.656854      -0.513852977367531      -0.157265803380273      -0.382801281290804
91                     102                     106              102.828427      0.0652715807484941       0.148318357694699     0.00218772659949693
92                     102                     106                     100      -0.512496733122403      -0.154216651305711       0.379284415049256
93                     104                     104              105.656854       0.247158091620708       0.253052685040693      -0.388508154541591
94                     104                     104              102.828427      -0.179941066814851      -0.184535623366009    -0.00132921486031293
95                     104                     104                     100       0.247306218576207       0.250548860282893       0.390615802954285
96                     106                     106              105.656854      -0.232959754245972      -0.245234563414976      -0.504684823254304
97                     106                     106              102.828427       0.225130561546629       0.233552657751754     0.00264539789358455
98                     106                     106                     100      -0.234041356591856      -0.239238345686492       0.500464187003331
99                     108                     104              105.656854       0.172805273001932       0.338676387477686      -0.375261070726088
100                     108                     104              102.828427      -0.176930801017866      -0.268806517513345   -0.000247145561925537
101                     108                     104                     100       0.175935945722113       0.336767255156926       0.375565782757204
102                     110                     106              105.656854      -0.180797455195206      -0.292830225213825      -0.489863220336261
103                     110                     106              102.828427       0.191515735500248       0.285520495356567    -0.00126434298646147
104                     110                     106                     100      -0.190553374759467      -0.291791570585912       0.492003814800864
105                     112                     104              105.656854       0.166494974257291        0.37898358401021      -0.391029344969672
106                     112                     104              102.828427       -0.17380737136843       -0.31427082919115      0.0031896464729615
107                     112                     104                     100       0.171539648985676       0.383348224005026       0.385761596689265
108                     114                     106              105.656854      -0.187697314521514      -0.306541501251543      -0.466507744680239
109                     114                     106              102.828427        0.19719304819954       0.311317820942983     -0.0088580478292423
110                     114                     106                     100      -0.194936110996872      -0.322164046979489       0.481699237535099
111                     116                     104              105.656854       0.198300883432956       0.404745363854755       -0.40653971788089
112                     116                     104              102.828427      -0.203465463688175      -0.343875009564736     0.00541475559836444
113                     116                     104                     100       0.198215158085132       0.413799402159931        0.39765908172001
114                     118                     106              105.656854      -0.241901331266445      -0.329184552106893      -0.450753291374862
115                     118                     106              102.828427         0.2438220969383       0.334377659443726    -0.00870023758046304
116                     118                     106                     100      -0.234332681896278       -0.34439675711531       0.465709812301684
117                     120                     104              105.656854       0.260951586883365       0.435895952353733      -0.421701370251351
118                     120                     104              102.828427      -0.265207159747618      -0.372903788983151     0.00309555661133001
119                     120                     104                     100       0.255883002398209       0.440043179655855        0.41655232758363
120                     122                     106              105.656854      -0.319223060636199      -0.363264561968265       -0.43823628366019
121                     122                     106              102.828427       0.320316591698305       0.357950546407569    -0.00106708157819296
122                     122                     106                     100      -0.309667659207278      -0.361797000583026       0.440117523592805
123                     124                     104              105.656854       0.368296729408722       0.464098222277836      -0.438568085930875
124                     124                     104              102.828427      -0.362645589065273      -0.398077556773578   -0.000299874413599508
125                     124                     104                     100       0.365260665842768       0.462089005399182       0.438926813480028
126                     126                     106              105.656854      -0.466041523482596      -0.369552495712811      -0.441603627991884
127                     126                     106              102.828427        0.40105784522904       0.361778568872185     0.00267699205319579
128                     126                     106                     100      -0.465120818901184      -0.363530749944704       0.437372668983043
129                     128                     104              105.656854       0.727918894917706       0.462520001773656      -0.330669585910065
130                     128                     104              102.828427      -0.282583270739717      -0.397194912433847    -0.00132201050144205
131                     128                     104                     100        0.72781661020811       0.460030361877533         0.3327505614268
132                     130                     106              105.656854       -1.23647216402191      -0.328429573885793        -0.8536064126078
133                     130                     106              102.828427       -0.45887238085588       0.323982361259219     0.00215297089378503
134                     130                     106                     100       -1.23784979961599      -0.325437320090105       0.850160422718977
135                     100                     108              105.656854        1.06312766951103        0.11680641929115      -0.799930740866345
136                     100                     108              102.828427       0.638121886810455      -0.117045357901366    -0.00251091117156092
137                     100                     108                     100        1.06070331407294       0.114327444193427       0.804008284522216
138                     102                     110              105.656854      -0.590153455256169      -0.155940217914087      -0.379178194922957
139                     102                     110              102.828427       0.138850556458218       0.156544938517708     0.00544298357494932
140                     102                     110                     100      -0.583871358484531      -0.150654313347046        0.37043876141595
141                     104                     108              105.656854       0.338297841596076       0.189882410783552      -0.371036153605341
142                     104                     108              102.828427      -0.267066586408067      -0.187969059585737    -0.00489283895092308
143                     104                     108                     100       0.334765826839114       0.182310445968525       0.378935543591745
144                     106                     110              105.656854      -0.297940210457231       -0.21954749505458      -0.506501663266584
145                     106                     110              102.828427       0.283144339064723       0.210748963436979      0.0113761212583522
146                     106                     110                     100      -0.288500992270188      -0.199578469201699       0.485206225416746
147                     108                     108              105.656854       0.221216524080248       0.250957976630193      -0.358837976575378
148                     108                     108              102.828427      -0.228521609994674      -0.244501159014659    -0.00485798921614823
149                     108                     108                     100       0.227856668667009       0.235951727543467       0.368134297941377
150                     110                     110              105.656854      -0.178279988887745       -0.25679044680142      -0.489037429098584
151                     110                     110              102.828427       0.215423256533097       0.243480838759268     0.00452632961329504
152                     110                     110                     100      -0.221523975903372      -0.232703881580849        0.47520093073866
153                     112                     108              105.656854       0.175138457412795        0.25572113579081       -0.39412234873786
154                     112                     108              102.828427      -0.197790899573138      -0.269236707629074     0.00858774913610685
155                     112                     108                     100       0.201061287866637       0.267340107327438       0.377907889045869
156                     114                     110              105.656854      -0.178782344232102       -0.18402683083454      -0.383199738722593
157                     114                     110              102.828427       0.208956990988282       0.246591319710297     -0.0272293290529448
158                     114                     110                     100      -0.213284056028466      -0.249387506517406       0.469943290466982
159                     116                     108              105.656854       0.220838145210568       0.250015871479501      -0.425879083358211
160                     116                     108              102.828427      -0.226339176276846      -0.281874547874025      0.0192757575698007
161                     116                     108                     100       0.220250698272766       0.286096916997188       0.388857830501994
162                     118                     110              105.656854      -0.286514893510511      -0.197356597461627      -0.368698685290263
163                     118                     110              102.828427       0.266924470783697       0.258090857402093     -0.0265271511918964
164                     118                     110                     100      -0.249503445648306       -0.26035644467456       0.452407574621136
165                     120                     108              105.656854       0.299890502192236       0.290740455814745      -0.428092252813292
166                     120                     108              102.828427      -0.290430839292849      -0.304210600488526     0.00805057075068531
167                     120                     108                     100       0.273988836317801       0.300964371963413       0.412903591157359
168                     122                     110              105.656854       -0.35630971688241      -0.291666964289522      -0.434572362776628
169                     122                     110              102.828427       0.333771788472637       0.278033430988134     0.00522041347299597
170                     122                     110                     100      -0.315097271521216      -0.266114909124978       0.418592085469181
171                     124                     108              105.656854       0.375016179744166       0.320824205191102      -0.431002715420223
172                     124                     108              102.828427      -0.368142757467746      -0.316419202353619    -0.00505795594877414
173                     124                     108                     100       0.368945168363167        0.30553921368043        0.44055394397107
174                     126                     110              105.656854      -0.436905198632335      -0.274983553153174      -0.435101881976549
175                     126                     110              102.828427       0.380219814137115       0.268197202692613      0.0113520465490477
176                     126                     110                     100      -0.446813305176839      -0.255346089196101       0.413917882151062
177                     128                     108              105.656854       0.688032904622838       0.293807208578936       -0.32637100323527
178                     128                     108              102.828427      -0.246580568607265      -0.295356890573073    -0.00484997634989656
179                     128                     108                     100       0.691669947081329       0.286359385888296       0.334164451579783
180                     130                     110              105.656854       -1.17932937582259      -0.228017579522911      -0.839064403159714
181                     130                     110              102.828427      -0.512974721500245       0.231109872792519     0.00532373364708917
182                     130                     110                     100       -1.18555689639148      -0.222920286920665        0.83054111350332
183                     100                     112              105.656854         1.1187032635378       0.138275469641198      -0.806362160282346
184                     100                     112              102.828427       0.583157737980193      -0.140218426608449    -0.00451846721674857
185                     100                     112                     100         1.1129143524726       0.135859693315088       0.813629985470284
186                     102                     114              105.656854      -0.639743939937137      -0.170666352511834      -0.371642384058724
187                     102                     114              102.828427        0.18552011871009       0.173171003311554     0.00891789182871481
188                     102                     114                     100      -0.626843748455092      -0.167763792196453       0.357229823594718
189                     104                     112              105.656854       0.402027815205861       0.188086485433223       -0.37447523952838
190                     104                     112              102.828427      -0.322561922356698      -0.185998610360916     -0.0120838107618922
191                     104                     112                     100       0.385073973903561       0.177729043092723       0.395291523434012
192                     106                     114              105.656854      -0.357854146299339      -0.210275760650493      -0.518158981095139
193                     106                     114              102.828427       0.322580371066654       0.208379031808475      0.0240603083518152
194                     106                     114                     100      -0.322735201865898      -0.199833349247454        0.46611277532489
195                     108                     112              105.656854        0.28166759960858       0.258956470195365      -0.309363841945507
196                     108                     112              102.828427      -0.262265386686957       -0.22419262547398      -0.021976502074117
197                     108                     112                     100       0.261330367144114       0.211262846518262        0.38957724782613
198                     110                     114              105.656854      -0.151073552835361      -0.205750104485718      -0.721739527112627
199                     110                     114              102.828427       0.223488721186181       0.226977064338169      0.0175037950548359
200                     110                     114                     100      -0.239385394860246      -0.220262763401821       0.455984798763251
201                     112                     112              105.656854      0.0963822060615635       0.232845514399127      -0.434623678536249