ITEM: TIMESTEP
0
ITEM: NUMBER OF ATOMS
422
ITEM: BOX BOUNDS ff ff ff
0.0000000000000000e+00 2.3200000000000000e+02
0.0000000000000000e+00 2.3200000000000000e+02
0.0000000000000000e+00 2.3200000000000000e+02
ITEM: ATOMS id xu yu zu fx fy fz
1        113.045932193839        115.983520815677              108.656854    -0.00401386134061066   -0.000826752832770158     0.00493572780441852
2        118.727484840071        115.989226241634              108.656854     0.00120273758068015   -0.000882992942738206     0.00996008942007765
3        117.302344993917        115.987795112765              108.656854   -0.000855431553891145     0.00331662163502644      0.0116995794670307
4        114.471072038949        115.984951942936              108.656854     0.00615345571106246      0.0035686157893009      0.0154232465716513
5        116.601075167769        114.749724850164              108.656854     -0.0149145096414953      0.0142725096350776      0.0322977483587991
6        115.174826990867        114.748292608712              108.656854      0.0277437893507031      0.0193296389649615      0.0500086658496318
7        115.172341865028        117.223022205388              108.656854      0.0270383734233985     -0.0117538843293797      0.0482597975603936
8        116.598590041422        117.224454446583              108.656854     -0.0144062938248909    -0.00658218044227135      0.0308069135338512
9        114.417756920757        113.548446241175              108.656854      0.0254112018640794     -0.0386354719292361       0.167885979066762
10        117.360553482731        113.551401403886              108.656854     -0.0536019882087796      -0.034745810265879       0.143422631275952
11        114.412863550773        118.421345651893              108.656854      0.0256163668346427      0.0184233154773487        0.17330018226902
12        117.355660110655        118.424300814179              108.656854     -0.0537735399928227      0.0151324967687691        0.14670932838745
13        113.027311260236        113.562444587898              108.656854     -0.0287714257626452     -0.0281477940967653       0.095677365416173
14        113.022448808114        118.404554762274              108.656854     -0.0294846563294592      0.0111198910300089      0.0985462411898324
15        118.750968226168        113.568192293572              108.656854      0.0120252285560651     -0.0325052829640185       0.128957078215559
16        118.746105771496         118.41030247058              108.656854      0.0128734703859182      0.0163105061796807       0.132772540943097
17        112.326795838139         117.19431994364              108.656854    -0.00555173833684609     0.00330433939181191       0.017170885110478
18         112.32922905874        114.771279815063              108.656854    -0.00607148013692032     0.00622042930528352      0.0184225872799427
19        119.446621196692        114.778427112272              108.656854      0.0221637828000731     0.00956943594764284      0.0277768393802513
20        119.444187975028         117.20146724296              108.656854      0.0216603231527262   -0.000513201728129714      0.0268291430486499
21        120.855135022624        114.824435085822              108.656854       0.131865059252867       0.121736532719405      0.0326472277942772
22        120.852791362251        117.158288229576              108.656854       0.129983901966161     -0.0206337917158517      0.0280360226303281
23        110.920625673161        114.814458829493              108.656854      -0.012108593093796       0.128980517309591       0.062387367813793
24        110.918282013145        117.148311972274              108.656854     -0.0118118680822916     -0.0221422903002611      0.0567446183732063
25         121.48672646074        115.991997078118              108.656854     -0.0600783886460496     -0.0262875354444963      0.0003154056912579
26        110.286690574472        115.980749978664              108.656854     -0.0123215950079525     -0.0274131600123912    -0.00839454133061923
27        121.509196045824        118.185922140926              108.656854       -0.18199221616209     -0.0453167122660468       0.174780085996786
28          121.5136022867        113.798121569695              108.656854      -0.187979276721242     -0.0791702125196751       0.164154824076134
29        110.259814750727        118.174625487296              108.656854      0.0163517355074135      -0.054570577377549        0.16247842920277
30         110.26422099026         113.78682491673              108.656854      0.0198600773873019     -0.0802223795644551       0.149239898471149
31        112.499866822243        112.615454800093              108.656854     -0.0175440277858817       0.026398020520877      0.0142910058048678
32        112.493103500599        119.350483321209              108.656854     -0.0171173027936037      0.0156886047660891      0.0081442154132864
33        119.280313532952        112.622263734631              108.656854      0.0573351081918728      0.0267257852907475     0.00479339339716009
34        119.273550207142        119.357292260389              108.656854      0.0551683547424531      0.0142296823335739    -0.00106893619296489
35        114.862286572867         112.56896056388              108.656854     0.00498402630987888      0.0143373784205181    -0.00180186861444688
36        114.855425108682        119.401722146141              108.656854     0.00484979615587811      0.0133701563445744     -0.0057625016870108
37        116.917991924022        112.571024909739              108.656854      0.0219649600572327      0.0150094428949195   -0.000340146438889435
38        116.911130457531        119.403786490585              108.656854      0.0211119912276068      0.0123692732529033    -0.00413458825163173
39                     100                     100              105.656854       0.212147850654485        0.21401542962385      -0.975678574119081
40                     100                     100              102.828427       0.432032793013582        0.43039887870914   -0.000380417350190454
41                     100                     100                     100       0.212126347857513        0.21346122108516       0.976321022554263
42                     102                     102              105.656854      -0.344450203384909      -0.347648470872376      -0.277982332215304
43                     102                     102              102.828427     -0.0509390328786219      -0.048265581098121    0.000695036282438481
44                     102                     102                     100      -0.344449917337709      -0.346505523601137       0.276848542363521
45                     104                     100              105.656854      0.0957095704933431       0.960113365848263      -0.808939990007187
46                     104                     100              102.828427     -0.0636980896873776       0.726666904800226   -0.000273471162062598
47                     104                     100                     100      0.0961004291863047       0.959465701599402       0.809368626109246
48                     106                     102              105.656854       -0.14895363881539      -0.514952751818102      -0.381451376004306
49                     106                     102              102.828427       0.142084987479912      0.0665617211219794    0.000365057392272822
50                     106                     102                     100      -0.150026714359075      -0.513769669549445       0.380920207855108
51                     108                     100              105.656854       0.109434231626458        1.06002893012609      -0.801922726823983
52                     108                     100              102.828427      -0.111443556580879       0.639919699886527    0.000274757667149448
53                     108                     100                     100        0.11052160954455        1.06000103783507       0.801412373821474
54                     110                     102              105.656854      -0.142955014897846      -0.581670576821203      -0.373787890998517
55                     110                     102              102.828427       0.147770927839595       0.134658400613713     -0.0010179234505341
56                     110                     102                     100       -0.14541421063031      -0.582516292040149       0.375534011544785
57                     112                     100              105.656854       0.131633816950938        1.10824797010469      -0.810703870820662
58                     112                     100              102.828427      -0.135423079074175       0.589587985881408     0.00120187689924476
59                     112                     100                     100       0.132804012974748        1.10976321612657       0.808663050775075
60                     114                     102              105.656854      -0.163849177299797      -0.618469377345401      -0.361314257665456
61                     114                     102              102.828427       0.168765026003683       0.174587904192221    -0.00270385333461892
62                     114                     102                     100       -0.16528210493375       -0.62253700704473       0.365780841634445
63                     116                     100              105.656854       0.166673244583327        1.14375915771523      -0.821246725371583
64                     116                     100              102.828427      -0.170837846785928       0.552398057490976     0.00168808569401885
65                     116                     100                     100       0.166633635329173         1.1461814860026       0.818413277588433
66                     118                     102              105.656854      -0.209701598090245      -0.650845120096512      -0.347928033085464
67                     118                     102              102.828427       0.214511968638135       0.207947454902622    -0.00264445611992815
68                     118                     102                     100      -0.208135790953915      -0.654791197422378       0.352299210709242
69                     120                     100              105.656854       0.223325126886197        1.18247700618822      -0.835239251872523
70                     120                     100              102.828427      -0.228731832819042       0.512976284905864     0.00115625402897517
71                     120                     100                     100       0.222127392015772        1.18390820108233       0.833273049257777
72                     122                     102              105.656854      -0.288872624174304      -0.688109722560402      -0.330329503134031
73                     122                     102              102.828427       0.293659319742049       0.244405712960864    -0.00092488183985242
74                     122                     102                     100      -0.286456580557498      -0.688790705377385       0.331924372119569
75                     124                     100              105.656854       0.326396787087045        1.23679187393366      -0.852093852671867
76                     124                     100              102.828427      -0.323040293606205       0.459442962453345    0.000236026486341345
77                     124                     100                     100       0.325344565899985        1.23670823827863       0.851648530999331
78                     126                     102              105.656854      -0.461672392247744       -0.72783784264012      -0.332043811603048
79                     126                     102              102.828427       0.397232044491743       0.281811614472789    0.000398619555607959
80                     126                     102                     100      -0.460680540369778      -0.726630236516401       0.331454809673779
81                     128                     100              105.656854       0.708252249308359        1.34079116404564      -0.754732472968536
82                     128                     100              102.828427      -0.280917909436091       0.396018214298709   -0.000283841008335975
83                     128                     100                     100       0.707892798023817        1.34014241215527       0.755180438186637
84                     130                     102              105.656854       -1.34055798543587      -0.708801129426891      -0.755419557641709
85                     130                     102              102.828427      -0.395888447561346       0.281071314665591    0.000687988853583002
86                     130                     102                     100       -1.34058482776751      -0.707690462099783       0.754294177205602
87                     100                     104              105.656854       0.959095466572131        0.10012755035132      -0.808406215610245
88                     100                     104              102.828427       0.727680545813565     -0.0672910239910168    -0.00106926951400623
89                     100                     104                     100       0.958522940559795      0.0987618292682243       0.810173003270771
90                     102                     106              105.656854      -0.513797626157614      -0.157285169360047      -0.382846045052769
91                     102                     106              102.828427      0.0651973164075333       0.148295324408541     0.00221999721788772
92                     102                     106                     100      -0.512422102954949      -0.154174151061566       0.379284325045888
93                     104                     104              105.656854       0.247075427884844       0.253036065025043      -0.388485049941111
94                     104                     104              102.828427      -0.179862735141602      -0.184489207201073    -0.00134119988685514
95                     104                     104                     100       0.247240047545935       0.250490796693697       0.390603802353082
96                     106                     106              105.656854      -0.232792971044873      -0.245249957862658      -0.504749783020146
97                     106                     106              102.828427       0.224985055385554       0.233466330300656     0.00267333506949161
98                     106                     106                     100      -0.233935510591694      -0.239133367109021       0.500497563100179
99                     108                     104              105.656854       0.172671189444805       0.338558440948114      -0.375264508676534
100                     108                     104              102.828427       -0.17683515671935      -0.268678002370574   -0.000226603617191505
101                     108                     104                     100       0.175874581891942       0.336652992314572       0.375519689632613
102                     110                     106              105.656854      -0.180556626364873      -0.292531339458012      -0.489810864669331
103                     110                     106              102.828427       0.191385071926108       0.285249290694741    -0.00134231422147447
104                     110                     106                     100      -0.190492600063838      -0.291596099351933       0.492113847613481
105                     112                     104              105.656854       0.166491174064205       0.378715036513545      -0.391077216317777
106                     112                     104              102.828427      -0.173811248610288      -0.314059895016769     0.00325399650153987
107                     112                     104                     100       0.171549390103896       0.383196417325899       0.385685726949073
108                     114                     106              105.656854      -0.187893261203732      -0.306136326927071      -0.466418407510915
109                     114                     106              102.828427       0.197323358050203        0.31101268404085    -0.00897235938963835
110                     114                     106                     100      -0.195020821177876        -0.3219700059367       0.481821659704508
111                     116                     104              105.656854       0.198492904828294       0.404582775805083      -0.406539603780717
112                     116                     104              102.828427      -0.203598711694604      -0.343731710260799     0.00544210695352288
113                     116                     104                     100       0.198303632579343       0.413689195522196       0.397610649821789
114                     118                     106              105.656854      -0.242268391451421      -0.329153385706846       -0.45084582603026
115                     118                     106              102.828427       0.244055767406453       0.334285881136925    -0.00867657065920457
116                     118                     106                     100      -0.234477096172033      -0.344310230141175       0.465742834932896
117                     120                     104              105.656854       0.261094098762103        0.43594300326095      -0.421620208522811
118                     120                     104              102.828427      -0.265319073583707      -0.372886286014116     0.00305313405381902
119                     120                     104                     100       0.255967679021626        0.44000441322255       0.416554633397354
120                     122                     106              105.656854      -0.319224245074522       -0.36343903555297      -0.438416506748091
121                     122                     106              102.828427       0.320375754387643       0.357979821952322   -0.000973366250606188
122                     122                     106                     100      -0.309740190514036      -0.361782909180188       0.440095141343472
123                     124                     104              105.656854        0.36829032756984       0.464128537258943      -0.438501274397261
124                     124                     104              102.828427      -0.362670202757094      -0.398075973742618   -0.000338919564416427
125                     124                     104                     100        0.36529984693376       0.462075910490534       0.438939358603025
126                     126                     106              105.656854      -0.465988966642187      -0.369485314152146      -0.441645475871035
127                     126                     106              102.828427       0.401055446065573       0.361743164697225     0.00269090614311636
128                     126                     106                     100      -0.465146337843127      -0.363515616711599       0.437371287429753
129                     128                     104              105.656854       0.727922541081118       0.462490937981328      -0.330640959887125
130                     128                     104              102.828427      -0.282599618762046      -0.397172764941521    -0.00133357834065142
131                     128                     104                     100       0.727840321449093       0.460017285290575       0.332752737360986
132                     130                     106              105.656854       -1.23650491656242      -0.328375298133912      -0.853621752595168
133                     130                     106              102.828427      -0.458842430673441       0.323950511122405     0.00214910764608316
134                     130                     106                     100       -1.23787653003491      -0.325424627141558       0.850167543090972
135                     100                     108              105.656854        1.06310010888182       0.116826734197639      -0.799878652261449
136                     100                     108              102.828427       0.638183108473282       -0.11703367150361    -0.00255112813360478
137                     100                     108                     100        1.06063109988189       0.114300413658278       0.804016770988049
138                     102                     110              105.656854      -0.590168079960275      -0.155984619213263       -0.37933226370232
139                     102                     110              102.828427       0.138742133403367       0.156510639813917     0.00553927576881329
140                     102                     110                     100      -0.583744023201838       -0.15060247004514       0.370432745100204
141                     104                     108              105.656854        0.33824354741276       0.189986354766813      -0.370883068249043
142                     104                     108              102.828427      -0.266929862418453      -0.187923049555725    -0.00497982777628172
143                     104                     108                     100       0.334636496320345       0.182229195539489       0.378925619146248
144                     106                     110              105.656854       -0.29790841537969      -0.219884079376007      -0.507231752755376
145                     106                     110              102.828427       0.282802623702894        0.21056064987508      0.0115721013084658
146                     106                     110                     100      -0.288264730995419      -0.199406286513728       0.485290749628124
147                     108                     108              105.656854       0.220729812483576       0.251055326258979        -0.3586009294456
148                     108                     108              102.828427      -0.228212862678438      -0.244256233076393    -0.00488055589310499
149                     108                     108                     100       0.227695451556352       0.235745337241486        0.36801938384372
150                     110                     110              105.656854      -0.176437259031215      -0.255616592299836      -0.489196721521381
151                     110                     110              102.828427       0.214894087165712       0.242674196171829     0.00418582831585804
152                     110                     110                     100      -0.221364416057008      -0.232344875016269       0.475562186443911
153                     112                     108              105.656854       0.175017437305954        0.25490036333911      -0.394355006305425
154                     112                     108              102.828427      -0.197762267454428      -0.268679789954423     0.00884694789164202
155                     112                     108                     100       0.201073871415451       0.267044351877677       0.377667809553768
156                     114                     110              105.656854      -0.179674557310587      -0.182953225685738      -0.383326797255489
157                     114                     110              102.828427       0.209392872347602       0.245833354281112     -0.0277724966203935
158                     114                     110                     100      -0.213495844999463      -0.249081369222057       0.470326088688909
159                     116                     108              105.656854       0.221431033626823       0.249615647966686      -0.425905153047636
160                     116                     108              102.828427       -0.22670805307906      -0.281559060756133      0.0193926590534572
161                     116                     108                     100        0.22045637097953       0.285913830082632       0.388711563575589
162                     118                     110              105.656854      -0.287625493268199      -0.196760686920596      -0.368647914882286
163                     118                     110              102.828427       0.267546685157939       0.257908371286176     -0.0265156781837395
164                     118                     110                     100      -0.249804369737555      -0.260263732269294       0.452503023246255
165                     120                     108              105.656854       0.300346507738409       0.291189613696153      -0.427613873769169
166                     120                     108              102.828427      -0.290680233553188      -0.304247715266245     0.00787327577741507
167                     120                     108                     100       0.274148509321585       0.300931720760832       0.412918401585506
168                     122                     110              105.656854      -0.355089326764211      -0.292635300028518       -0.43593154066752
169                     122                     110              102.828427        0.33371565009739       0.278114907302317     0.00551573877055328
170                     122                     110                     100       -0.31518927049522      -0.266130455208408       0.418544776819075
171                     124                     108              105.656854       0.374679525157329       0.320743264493899      -0.430892083543148
172                     124                     108              102.828427      -0.368079413895778      -0.316398152183336    -0.00511241374605772
173                     124                     108                     100       0.368977861815096       0.305533060935203       0.440566952162239
174                     126                     110              105.656854      -0.436935011700989      -0.274423926081486      -0.434771999694762
175                     126                     110              102.828427       0.380189658202799       0.268087281392261      0.0112086997156562
176                     126                     110                     100      -0.446827609538493      -0.255343493100181       0.413955712082234
177                     128                     108              105.656854       0.688085669296536       0.293634704722526      -0.326398542869667
178                     128                     108              102.828427      -0.246609623393117      -0.295288655741848     -0.0048079895957978
179                     128                     108                     100       0.691696994575337       0.286343360827614       0.334141474064817
180                     130                     110              105.656854        -1.1794971466015      -0.227911786107322      -0.839019666334458
181                     130                     110              102.828427      -0.512894779686205       0.231071320734675     0.00526036988137572
182                     130                     110                     100       -1.18559551874161      -0.222919271501504       0.830576301605245
183                     100                     112              105.656854        1.11869594860464       0.138282998924409      -0.806256293649945
184                     100                     112              102.828427       0.583246603436919       -0.14020137421532    -0.00459033890603812
185                     100                     112                     100        1.11280658795512       0.135837748847391       0.813642209411015
186                     102                     114              105.656854      -0.639701292038538      -0.170618635026506       -0.37189794975826
187                     102                     114              102.828427       0.185305024838085       0.173123831822601     0.00903457968752196
188                     102                     114                     100       -0.62664621429906      -0.167735977188613       0.357244405727677
189                     104                     112              105.656854       0.402173905974316       0.188035684275992      -0.373918076215841
190                     104                     112              102.828427      -0.322271317444607      -0.185849107085073     -0.0122678858623061
191                     104                     112                     100       0.384828377280018       0.177627681467166       0.395243759518902
192                     106                     114              105.656854      -0.356665297814128      -0.208884713108752      -0.519455088975315
193                     106                     114              102.828427       0.321617279496043       0.207958401805681       0.024003315043315
194                     106                     114                     100      -0.322304954313187      -0.199705811405185        0.46639621120778
195                     108                     112              105.656854       0.280820468400899       0.258924444209778       -0.30456906342921
196                     108                     112              102.828427      -0.261234106227744      -0.223343666390772     -0.0217795602894496
197                     108                     112                     100       0.260970124792109       0.210961902785409       0.389187950511983
198                     110                     114              105.656854      -0.143415984311808      -0.196821663587737      -0.749376084202205
199                     110                     114              102.828427       0.222392241273413        0.22577453893857       0.014798457827783
200                     110                     114                     100      -0.239159139908752      -0.220036703254365       0.456928573686969
201                     112                     112              105.656854      0.0979184606776184       0.226130246328527      -0.438090211083335