ITEM: TIMESTEP
0
ITEM: NUMBER OF ATOMS
422
ITEM: BOX BOUNDS pp pp pp
0.0000000000000000e+00 3.2000000000000000e+01
0.0000000000000000e+00 3.2000000000000000e+01
0.0000000000000000e+00 3.2000000000000000e+01
ITEM: ATOMS id xu yu zu fx fy fz
1        13.1182909229739        15.9558795448126        8.62920872913529        3.60383666624645        3.68881272426183       0.763354846796541
2        18.8459314577191        16.0076728592824          8.675296617648      -0.209340714591117       -0.92520138953573      0.0946603213947808
3        17.4337874231909        16.0192375420389        8.68829242927394       -2.19607435265074       -2.17484404369555      -0.401798578809409
4         14.577647210394        15.9915271143809        8.66342517144502        -3.2970634205367         -3.289955477829      -0.835432001224191
5        16.6958944953102        14.7445441777047        8.65166932754097         1.7669493970797        2.41154244071448       0.389439479425425
6        15.2558934576953        14.7293590755398        8.63791646682787        3.56499593160434        3.84509686025244       0.643963416321351
7        15.2429924246938         17.193672765054        8.62750055966626        4.23850836950782        3.88883756020118       0.953658103215697
8        16.7278628700699        17.2537272752309        8.68612282864834       -2.60556699504807       -1.19014172479042      -0.413208237275428
9        14.5611125442149        13.5918018646326        8.70020562345747       -4.35904543329555        -4.4038474765885      -0.677712345442413
10        17.4976431270418        13.5884910481965        8.69393964431047       -2.20668211273241       -2.25530643589755      -0.418094030732533
11        14.5181015962402        18.4265836973603        8.66208804546733       0.241432429760779       -1.16282182181028      -0.139718764008058
12        17.4899438250634        18.4585845285871        8.69113371440819        -3.2263229676013       -1.60279167284969      -0.193285803674326
13        13.1191121461019        13.5542454737638        8.64865088586619        2.09326634934814       0.837161100977924       0.447552645564172
14        13.1712043997284         18.453310353889        8.70560559161474        -4.4301079225326       -4.80623687092342      -0.841628303002207
15         18.858611190381        13.5758352577851          8.664492964213        2.00024639465712        2.25661080857433       0.414733463817864
16        18.8061137972576        18.3703104963418        8.61685802576136        3.50892859846981        2.42404025488392       0.259971842555671
17         12.418107244643        17.1856313501439        8.64816140650401          1.370716750962        1.76063589635894       0.242148511165946
18        12.4500929899662        14.7921437462901        8.67771393122665       -3.51735817418629       -3.81440015303942      -0.832621916375499
19         19.572093344822        14.8038992604018        8.68232214812977      -0.811034936755883      -0.323095726293232      0.0203784173069781
20        19.5299900256141        17.1872692935454        8.64265205058588         1.2538831326634       0.981304477780999       0.206830105152312
21        20.9843691399097         14.853669203108        8.68608411728562       -2.72510125595276       -4.06489425692306      -0.629413360493742
22        20.9595746880301        17.1650715553552        8.66363332577939       -2.77555201400817       -2.91154591211051      -0.344886939055943
23        11.0167882930695         14.810621449401        8.65301261990843        3.30253603519196        3.70809770409644       0.609164085329179
24        11.0069233099338         17.136953269062        8.64549129678838         1.4786605579587        1.78652061510278       0.194046718627267
25        21.5954763994339        16.0007470168122        8.66559993869445        2.02227639898549       0.905520953290131       0.199773761462343
26        10.4013047909523        15.9953641951451        8.67146421648068       -2.08964799781767       -2.33921653491517      -0.405851591922415
27        21.5816329822678        18.1583590773701        8.62928693644375        1.74686181784365        2.79274453338351       0.023828879877178
28        21.5778273970625        13.7623466800571         8.6210751103624        1.10684196359469        2.53279057525276       0.313017956133272
29        10.3478618429438        18.1626725795127        8.64489709221637     -0.0439019354927348     -0.0700870329803391      0.0108415897634151
30        10.3883803846308        13.8109843111001        8.68100939437035       -1.72978385867693       -2.12096357823931     -0.0569989284916503
31        12.5581773195688        12.5737652974195         8.6151604973262       0.869542912839973        1.15628307149447        0.11428499346154
32        12.5458784358461         19.303258256456        8.60962493524679       0.713037123146343        1.47015869610726       0.283682280012032
33        19.4252024647195        12.6671526663989        8.70173893176763      -0.395997604763408      -0.685111890794567     -0.0923922623300285
34        19.3335151099524        19.3172571631989        8.61681490280997       0.166522211796478     -0.0689410409187873     -0.0969502193955119
35        14.9775494455009        12.5842234365135        8.67211287263397       0.334526332322777       0.588249311021469       0.125467733554212
36        14.9311893404881         19.377486377947        8.63261423180613        1.08899215569901       0.903641183893514      -0.029038084534756
37        17.0482664256419        12.6012994113597        8.68712450162038       0.195936742254687       0.202012995661587      0.0753586650778523
38        17.0463773283481        19.4390333614017        8.69209687081714     -0.0499165752909864      0.0693412768245752      0.0228735507530829
39                       0                       0                5.656854                       0                       0                       0
40                       0                       0                2.828427                       0                       0                       0
41                       0                       0                       0                       0                       0                       0
42                       2                       2                5.656854                       0                       0                       0
43                       2                       2                2.828427                       0                       0                       0
44                       2                       2                       0                       0                       0                       0
45                       4                       0                5.656854                       0                       0                       0
46                       4                       0                2.828427                       0                       0                       0
47                       4                       0                       0                       0                       0                       0
48                       6                       2                5.656854                       0                       0                       0
49                       6                       2                2.828427                       0                       0                       0
50                       6                       2                       0                       0                       0                       0
51                       8                       0                5.656854                       0                       0                       0
52                       8                       0                2.828427                       0                       0                       0
53                       8                       0                       0                       0                       0                       0
54                      10                       2                5.656854                       0                       0                       0
55                      10                       2                2.828427                       0                       0                       0
56                      10                       2                       0                       0                       0                       0
57                      12                       0                5.656854                       0                       0                       0
58                      12                       0                2.828427                       0                       0                       0
59                      12                       0                       0                       0                       0                       0
60                      14                       2                5.656854                       0                       0                       0
61                      14                       2                2.828427                       0                       0                       0
62                      14                       2                       0                       0                       0                       0
63                      16                       0                5.656854                       0                       0                       0
64                      16                       0                2.828427                       0                       0                       0
65                      16                       0                       0                       0                       0                       0
66                      18                       2                5.656854                       0                       0                       0
67                      18                       2                2.828427                       0                       0                       0
68                      18                       2                       0                       0                       0                       0
69                      20                       0                5.656854                       0                       0                       0
70                      20                       0                2.828427                       0                       0                       0
71                      20                       0                       0                       0                       0                       0
72                      22                       2                5.656854                       0                       0                       0
73                      22                       2                2.828427                       0                       0                       0
74                      22                       2                       0                       0                       0                       0
75                      24                       0                5.656854                       0                       0                       0
76                      24                       0                2.828427                       0                       0                       0
77                      24                       0                       0                       0                       0                       0
78                      26                       2                5.656854                       0                       0                       0
79                      26                       2                2.828427                       0                       0                       0
80                      26                       2                       0                       0                       0                       0
81                      28                       0                5.656854                       0                       0                       0
82                      28                       0                2.828427                       0                       0                       0
83                      28                       0                       0                       0                       0                       0
84                      30                       2                5.656854                       0                       0                       0
85                      30                       2                2.828427                       0                       0                       0
86                      30                       2                       0                       0                       0                       0
87                       0                       4                5.656854                       0                       0                       0
88                       0                       4                2.828427                       0                       0                       0
89                       0                       4                       0                       0                       0                       0
90                       2                       6                5.656854                       0                       0                       0
91                       2                       6                2.828427                       0                       0                       0
92                       2                       6                       0                       0                       0                       0
93                       4                       4                5.656854                       0                       0                       0
94                       4                       4                2.828427                       0                       0                       0
95                       4                       4                       0                       0                       0                       0
96                       6                       6                5.656854                       0                       0                       0
97                       6                       6                2.828427                       0                       0                       0
98                       6                       6                       0                       0                       0                       0
99                       8                       4                5.656854                       0                       0                       0
100                       8                       4                2.828427                       0                       0                       0
101                       8                       4                       0                       0                       0                       0
102                      10                       6                5.656854                       0                       0                       0
103                      10                       6                2.828427                       0                       0                       0
104                      10                       6                       0                       0                       0                       0
105                      12                       4                5.656854                       0                       0                       0
106                      12                       4                2.828427                       0                       0                       0
107                      12                       4                       0                       0                       0                       0
108                      14                       6                5.656854                       0                       0                       0
109                      14                       6                2.828427                       0                       0                       0
110                      14                       6                       0                       0                       0                       0
111                      16                       4                5.656854                       0                       0                       0
112                      16                       4                2.828427                       0                       0                       0
113                      16                       4                       0                       0                       0                       0
114                      18                       6                5.656854                       0                       0                       0
115                      18                       6                2.828427                       0                       0                       0
116                      18                       6                       0                       0                       0                       0
117                      20                       4                5.656854                       0                       0                       0
118                      20                       4                2.828427                       0                       0                       0
119                      20                       4                       0                       0                       0                       0
120                      22                       6                5.656854                       0                       0                       0
121                      22                       6                2.828427                       0                       0                       0
122                      22                       6                       0                       0                       0                       0
123                      24                       4                5.656854                       0                       0                       0
124                      24                       4                2.828427                       0                       0                       0
125                      24                       4                       0                       0                       0                       0
126                      26                       6                5.656854                       0                       0                       0
127                      26                       6                2.828427                       0                       0                       0
128                      26                       6                       0                       0                       0                       0
129                      28                       4                5.656854                       0                       0                       0
130                      28                       4                2.828427                       0                       0                       0
131                      28                       4                       0                       0                       0                       0
132                      30                       6                5.656854                       0                       0                       0
133                      30                       6                2.828427                       0                       0                       0
134                      30                       6                       0                       0                       0                       0
135                       0                       8                5.656854                       0                       0                       0
136                       0                       8                2.828427                       0                       0                       0
137                       0                       8                       0                       0                       0                       0
138                       2                      10                5.656854                       0                       0                       0
139                       2                      10                2.828427                       0                       0                       0
140                       2                      10                       0                       0                       0                       0
141                       4                       8                5.656854                       0                       0                       0
142                       4                       8                2.828427                       0                       0                       0
143                       4                       8                       0                       0                       0                       0
144                       6                      10                5.656854                       0                       0                       0
145                       6                      10                2.828427                       0                       0                       0
146                       6                      10                       0                       0                       0                       0
147                       8                       8                5.656854                       0                       0                       0
148                       8                       8                2.828427                       0                       0                       0
149                       8                       8                       0                       0                       0                       0
150                      10                      10                5.656854                       0                       0                       0
151                      10                      10                2.828427                       0                       0                       0
152                      10                      10                       0                       0                       0                       0
153                      12                       8                5.656854                       0                       0                       0
154                      12                       8                2.828427                       0                       0                       0
155                      12                       8                       0                       0                       0                       0
156                      14                      10                5.656854                       0                       0                       0
157                      14                      10                2.828427                       0                       0                       0
158                      14                      10                       0                       0                       0                       0
159                      16                       8                5.656854                       0                       0                       0
160                      16                       8                2.828427                       0                       0                       0
161                      16                       8                       0                       0                       0                       0
162                      18                      10                5.656854                       0                       0                       0
163                      18                      10                2.828427                       0                       0                       0
164                      18                      10                       0                       0                       0                       0
165                      20                       8                5.656854                       0                       0                       0
166                      20                       8                2.828427                       0                       0                       0
167                      20                       8                       0                       0                       0                       0
168                      22                      10                5.656854                       0                       0                       0
169                      22                      10                2.828427                       0                       0                       0
170                      22                      10                       0                       0                       0                       0
171                      24                       8                5.656854                       0                       0                       0
172                      24                       8                2.828427                       0                       0                       0
173                      24                       8                       0                       0                       0                       0
174                      26                      10                5.656854                       0                       0                       0
175                      26                      10                2.828427                       0                       0                       0
176                      26                      10                       0                       0                       0                       0
177                      28                       8                5.656854                       0                       0                       0
178                      28                       8                2.828427                       0                       0                       0
179                      28                       8                       0                       0                       0                       0
180                      30                      10                5.656854                       0                       0                       0
181                      30                      10                2.828427                       0                       0                       0
182                      30                      10                       0                       0                       0                       0
183                       0                      12                5.656854                       0                       0                       0
184                       0                      12                2.828427                       0                       0                       0
185                       0                      12                       0                       0                       0                       0
186                       2                      14                5.656854                       0                       0                       0
187                       2                      14                2.828427                       0                       0                       0
188                       2                      14                       0                       0                       0                       0
189                       4                      12                5.656854                       0                       0                       0
190                       4                      12                2.828427                       0                       0                       0
191                       4                      12                       0                       0                       0                       0
192                       6                      14                5.656854                       0                       0                       0
193                       6                      14                2.828427                       0                       0                       0
194                       6                      14                       0                       0                       0                       0
195                       8                      12                5.656854                       0                       0                       0
196                       8                      12                2.828427                       0                       0                       0
197                       8                      12                       0                       0                       0                       0
198                      10                      14                5.656854                       0                       0                       0
199                      10                      14                2.828427                       0                       0                       0
200                      10                      14                       0                       0                       0                       0
201                      12                      12                5.656854                       0                       0                       0