ITEM: TIMESTEP
0
ITEM: NUMBER OF ATOMS
422
ITEM: BOX BOUNDS ff ff ff
0.0000000000000000e+00 2.3200000000000000e+02
0.0000000000000000e+00 2.3200000000000000e+02
0.0000000000000000e+00 2.3200000000000000e+02
ITEM: ATOMS id xu yu zu fx fy fz
1        113.132713979183        115.970302601021        108.643635785344        1.86061809317674        2.39003654130496       0.399740303314003
2         118.85299374738        116.014735148944        108.682362907309       -5.06897317286415       -6.04716279487395       -1.18838203319908
3        117.394321396802         115.97977151565        108.648830402885      -0.636176915589613       -1.52065096936263      -0.264617721342304
4        114.523739111882        115.937619015869        108.609521072933        7.20616318641063        8.26509541236241        1.86765105882546
5        116.662308995574        114.710958677969        108.618087827805        4.94017787173611        4.38101464172474       0.881183978735317
6        115.315654787156        114.789120405001        108.697681796289       -8.59297965740911       -9.10446081391288       -1.95122589875088
7        115.322195750984        117.272876091344        108.706707885957       -7.48019722060692       -7.14900738415974       -1.61923628114597
8        116.663680373812        117.189544778973         108.62194433239        3.51864733302497        2.69965397826236       0.583643738931283
9        114.470571146514        113.501260466932        108.609668225757        5.94655317567397        5.77168851557618        1.31446039811544
10        117.445668468024        113.536516389179        108.641968985293      -0.429169204413788       0.254069499568015      -0.143131236028979
11        114.533970072446        118.442452173566        108.677960521673       -2.18401725013358       -1.46665851047323      -0.100604938855874
12        117.407445101008        118.376085804531        108.608638990352         1.1615579528081        1.03869058805112     -0.0080754816593543
13        113.139294448967        113.574427776629        108.668837188732       -2.59699457376805       -1.66685666960361       -0.23985514926986
14        113.102030949406        118.384136903566        108.636436141292        3.23478274284155        2.30455179337366       0.430433643312446
15        118.816953873382        113.534177940786        108.622839647214        1.07168011238576         1.8788371353578        0.18252552911233
16        118.806274345291        118.370471044375        108.617022573795        1.48391654975892        2.52219685871922       0.299246914237996
17        112.450889134282        117.218413239783        108.680947296143       -3.66972689857918       -4.17298759467695      -0.881610121857817
18        112.471498998646         114.81354975497        108.699123939907       -4.03346878213386       -4.12757977559418      -0.746464871211279
19        119.510523683297        114.742329598876        108.620756486604        2.76402805047031        3.43443833284274       0.593773169310888
20        119.497511804922        117.154791072854        108.610177829894        6.06355588409534        5.34480958915965        1.02921717412627
21        120.947479203353        114.816779266551        108.649198180729       0.963582030337181        1.26812011161693       0.035947044477954
22        120.985802364282        117.191299231607        108.689865002031        -2.6708189835678       -2.00903635225093      -0.749264193335473
23        111.025368384047        114.819201540379        108.661596710886        2.68294676593429        2.80318593833058       0.809406544495752
24         111.00291035007        117.132940309198        108.641482336925        3.72051465918366        3.72625608673902       0.822621629516802
25        121.620768846863        116.026039464241        108.690896386123        -1.7707472412751       -2.40476577499519      0.0127923839632156
26        110.412779050903        116.006838455096        108.682942476431       -2.70821744612834         -3.515828466078      -0.607615824082329
27        121.649964585602        118.226690680705        108.697622539778       -1.15061239275526      -0.263399196658992      0.0651839863159617
28        121.602180033305        113.786699316299        108.645431746605      0.0340364108339022        0.18460368858545     -0.0210139625301204
29        110.343668456908        118.158479193476         108.64070770618      -0.357863848556761      -0.247025964624074      -0.108421140041469
30        110.375614591583        113.798218518052        108.668247601323      -0.343452331284902      -0.501846003468411     -0.0394613528899058
31        112.578651110355        112.594239088206        108.635638288112       0.481185474414547        1.32776784441645       0.171802130612738
32        112.567911969971        119.325291790581        108.631662469372      -0.176067965509619     0.00214998248859761     -0.0946362938612384
33        119.419305796504        112.661255998184        108.695846263553      -0.442672581801143       -1.13718350625041      -0.141716202225618
34        119.420358277844         119.40410033109        108.703662070701       -2.11122682733296       -3.08569567636423      -0.465255661464045
35        114.974265731301        112.580939722313        108.668833158434      -0.484319183198996       -1.16504658211407      -0.266018555722584
36         114.92635383085        119.372650868309        108.627782722168       0.771931645908906        1.87828539958577      0.0377661985403072
37        117.052595969313        112.605628955031        108.691458045292       -1.09662190904068       -1.73975524517321      0.0781120981808117
38        116.975330863523        119.367986896577        108.621054405992      0.0984464469548883      -0.150504657430934      0.0210989953492186
39                     100                     100              105.656854                       0                       0                       0
40                     100                     100              102.828427                       0                       0                       0
41                     100                     100                     100                       0                       0                       0
42                     102                     102              105.656854                       0                       0                       0
43                     102                     102              102.828427                       0                       0                       0
44                     102                     102                     100                       0                       0                       0
45                     104                     100              105.656854                       0                       0                       0
46                     104                     100              102.828427                       0                       0                       0
47                     104                     100                     100                       0                       0                       0
48                     106                     102              105.656854                       0                       0                       0
49                     106                     102              102.828427                       0                       0                       0
50                     106                     102                     100                       0                       0                       0
51                     108                     100              105.656854                       0                       0                       0
52                     108                     100              102.828427                       0                       0                       0
53                     108                     100                     100                       0                       0                       0
54                     110                     102              105.656854                       0                       0                       0
55                     110                     102              102.828427                       0                       0                       0
56                     110                     102                     100                       0                       0                       0
57                     112                     100              105.656854                       0                       0                       0
58                     112                     100              102.828427                       0                       0                       0
59                     112                     100                     100                       0                       0                       0
60                     114                     102              105.656854                       0                       0                       0
61                     114                     102              102.828427                       0                       0                       0
62                     114                     102                     100                       0                       0                       0
63                     116                     100              105.656854                       0                       0                       0
64                     116                     100              102.828427                       0                       0                       0
65                     116                     100                     100                       0                       0                       0
66                     118                     102              105.656854                       0                       0                       0
67                     118                     102              102.828427                       0                       0                       0
68                     118                     102                     100                       0                       0                       0
69                     120                     100              105.656854                       0                       0                       0
70                     120                     100              102.828427                       0                       0                       0
71                     120                     100                     100                       0                       0                       0
72                     122                     102              105.656854                       0                       0                       0
73                     122                     102              102.828427                       0                       0                       0
74                     122                     102                     100                       0                       0                       0
75                     124                     100              105.656854                       0                       0                       0
76                     124                     100              102.828427                       0                       0                       0
77                     124                     100                     100                       0                       0                       0
78                     126                     102              105.656854                       0                       0                       0
79                     126                     102              102.828427                       0                       0                       0
80                     126                     102                     100                       0                       0                       0
81                     128                     100              105.656854                       0                       0                       0
82                     128                     100              102.828427                       0                       0                       0
83                     128                     100                     100                       0                       0                       0
84                     130                     102              105.656854                       0                       0                       0
85                     130                     102              102.828427                       0                       0                       0
86                     130                     102                     100                       0                       0                       0
87                     100                     104              105.656854                       0                       0                       0
88                     100                     104              102.828427                       0                       0                       0
89                     100                     104                     100                       0                       0                       0
90                     102                     106              105.656854                       0                       0                       0
91                     102                     106              102.828427                       0                       0                       0
92                     102                     106                     100                       0                       0                       0
93                     104                     104              105.656854                       0                       0                       0
94                     104                     104              102.828427                       0                       0                       0
95                     104                     104                     100                       0                       0                       0
96                     106                     106              105.656854                       0                       0                       0
97                     106                     106              102.828427                       0                       0                       0
98                     106                     106                     100                       0                       0                       0
99                     108                     104              105.656854                       0                       0                       0
100                     108                     104              102.828427                       0                       0                       0
101                     108                     104                     100                       0                       0                       0
102                     110                     106              105.656854                       0                       0                       0
103                     110                     106              102.828427                       0                       0                       0
104                     110                     106                     100                       0                       0                       0
105                     112                     104              105.656854                       0                       0                       0
106                     112                     104              102.828427                       0                       0                       0
107                     112                     104                     100                       0                       0                       0
108                     114                     106              105.656854                       0                       0                       0
109                     114                     106              102.828427                       0                       0                       0
110                     114                     106                     100                       0                       0                       0
111                     116                     104              105.656854                       0                       0                       0
112                     116                     104              102.828427                       0                       0                       0
113                     116                     104                     100                       0                       0                       0
114                     118                     106              105.656854                       0                       0                       0
115                     118                     106              102.828427                       0                       0                       0
116                     118                     106                     100                       0                       0                       0
117                     120                     104              105.656854                       0                       0                       0
118                     120                     104              102.828427                       0                       0                       0
119                     120                     104                     100                       0                       0                       0
120                     122                     106              105.656854                       0                       0                       0
121                     122                     106              102.828427                       0                       0                       0
122                     122                     106                     100                       0                       0                       0
123                     124                     104              105.656854                       0                       0                       0
124                     124                     104              102.828427                       0                       0                       0
125                     124                     104                     100                       0                       0                       0
126                     126                     106              105.656854                       0                       0                       0
127                     126                     106              102.828427                       0                       0                       0
128                     126                     106                     100                       0                       0                       0
129                     128                     104              105.656854                       0                       0                       0
130                     128                     104              102.828427                       0                       0                       0
131                     128                     104                     100                       0                       0                       0
132                     130                     106              105.656854                       0                       0                       0
133                     130                     106              102.828427                       0                       0                       0
134                     130                     106                     100                       0                       0                       0
135                     100                     108              105.656854                       0                       0                       0
136                     100                     108              102.828427                       0                       0                       0
137                     100                     108                     100                       0                       0                       0
138                     102                     110              105.656854                       0                       0                       0
139                     102                     110              102.828427                       0                       0                       0
140                     102                     110                     100                       0                       0                       0
141                     104                     108              105.656854                       0                       0                       0
142                     104                     108              102.828427                       0                       0                       0
143                     104                     108                     100                       0                       0                       0
144                     106                     110              105.656854                       0                       0                       0
145                     106                     110              102.828427                       0                       0                       0
146                     106                     110                     100                       0                       0                       0
147                     108                     108              105.656854                       0                       0                       0
148                     108                     108              102.828427                       0                       0                       0
149                     108                     108                     100                       0                       0                       0
150                     110                     110              105.656854                       0                       0                       0
151                     110                     110              102.828427                       0                       0                       0
152                     110                     110                     100                       0                       0                       0
153                     112                     108              105.656854                       0                       0                       0
154                     112                     108              102.828427                       0                       0                       0
155                     112                     108                     100                       0                       0                       0
156                     114                     110              105.656854                       0                       0                       0
157                     114                     110              102.828427                       0                       0                       0
158                     114                     110                     100                       0                       0                       0
159                     116                     108              105.656854                       0                       0                       0
160                     116                     108              102.828427                       0                       0                       0
161                     116                     108                     100                       0                       0                       0
162                     118                     110              105.656854                       0                       0                       0
163                     118                     110              102.828427                       0                       0                       0
164                     118                     110                     100                       0                       0                       0
165                     120                     108              105.656854                       0                       0                       0
166                     120                     108              102.828427                       0                       0                       0
167                     120                     108                     100                       0                       0                       0
168                     122                     110              105.656854                       0                       0                       0
169                     122                     110              102.828427                       0                       0                       0
170                     122                     110                     100                       0                       0                       0
171                     124                     108              105.656854                       0                       0                       0
172                     124                     108              102.828427                       0                       0                       0
173                     124                     108                     100                       0                       0                       0
174                     126                     110              105.656854                       0                       0                       0
175                     126                     110              102.828427                       0                       0                       0
176                     126                     110                     100                       0                       0                       0
177                     128                     108              105.656854                       0                       0                       0
178                     128                     108              102.828427                       0                       0                       0
179                     128                     108                     100                       0                       0                       0
180                     130                     110              105.656854                       0                       0                       0
181                     130                     110              102.828427                       0                       0                       0
182                     130                     110                     100                       0                       0                       0
183                     100                     112              105.656854                       0                       0                       0
184                     100                     112              102.828427                       0                       0                       0
185                     100                     112                     100                       0                       0                       0
186                     102                     114              105.656854                       0                       0                       0
187                     102                     114              102.828427                       0                       0                       0
188                     102                     114                     100                       0                       0                       0
189                     104                     112              105.656854                       0                       0                       0
190                     104                     112              102.828427                       0                       0                       0
191                     104                     112                     100                       0                       0                       0
192                     106                     114              105.656854                       0                       0                       0
193                     106                     114              102.828427                       0                       0                       0
194                     106                     114                     100                       0                       0                       0
195                     108                     112              105.656854                       0                       0                       0
196                     108                     112              102.828427                       0                       0                       0
197                     108                     112                     100                       0                       0                       0
198                     110                     114              105.656854                       0                       0                       0
199                     110                     114              102.828427                       0                       0                       0
200                     110                     114                     100                       0                       0                       0
201                     112                     112              105.656854                       0                       0                       0