ITEM: TIMESTEP
0
ITEM: NUMBER OF ATOMS
422
ITEM: BOX BOUNDS ff ff ff
0.0000000000000000e+00 2.3200000000000000e+02
0.0000000000000000e+00 2.3200000000000000e+02
0.0000000000000000e+00 2.3200000000000000e+02
ITEM: ATOMS id xu yu zu fx fy fz
1        113.123116234408        115.960704856247         108.63403804057       -1.10575199547026        1.02890662941942      -0.021752376556444
2        118.849237790028        116.010979191592        108.678606949957        1.26284208290407       0.893434409592286     -0.0209784451271995
3        117.425654547218        116.011104666066        108.680163553301        -1.4787249168261      -0.757300705654474     -0.0400229414096856
4        114.595020685566        116.008900589553        108.680802646617      -0.714918837722833      -0.970004314508259    -0.00194303447309935
5        116.657949616915        114.706599299309        108.613728449145        1.24617335503576       0.990877611564632      0.0250374068328556
6        115.278847612107        114.752313229952         108.66087462124       0.222221514497282      -0.418676656903176      0.0287548972102667
7        115.265021766461        117.215702106821        108.649533901434       0.480140915298744      -0.297831353832134     -0.0150086569801788
8        116.684236034081        117.210100439242        108.642499992659        1.51115552483461       0.538018253567941      0.0227969285413314
9        114.492779141588        113.523468462006        108.631876220831      -0.306698522004199      -0.160028864908442     -0.0386781722864006
10        117.429926899197        113.520774820351        108.626227416465       -0.23982753247373      -0.600373706416633      0.0254816254542785
11        114.537256070305        118.445738171425        108.681246519532       -1.01325507584502       0.820089468266154      0.0150818793797056
12        117.452376726655        118.421017430178           108.653570616       0.249343999172155       0.696729172609056     -0.0103804986785677
13          113.1172440257        113.552377353362        108.646786765464       -1.02434612968127       -1.03052772135854      0.0495622423504375
14        113.164482944637        118.446588898798        108.698888136524      -0.835738557557188      -0.572425313644769     -0.0147880819941874
15        118.858972326961        113.576196394365        108.664858100793       0.425350197781481      -0.562131358893635    -0.00206268258257929
16        118.823302746587        118.387499445671        108.634050975091       0.776317410916751       0.396988084697623     -0.0110315645465386
17        112.400818087204        117.168342192705        108.630876249065       0.872465888035081        1.68530052653136     -0.0463160124904866
18        112.379529439022        114.721580195346        108.607154380283        1.84889000137537       0.828541947678103     -0.0317594383866573
19        119.596225359692        114.828031275271        108.706458162999       -1.59683617667654      -0.944992950704995     0.00207595557626628
20        119.541017584804        117.198296852736        108.653683609776       -1.04190462416747      -0.802719377114543      0.0259782914942127
21        120.952193931137        114.821493994336        108.653912908513       -1.37449895732176        1.03861196904407      0.0262857198322335
22        120.945256103804        117.150752971129        108.649318741553        0.67939668514378       0.118186090823586     0.00268674370928109
23        110.990937792616        114.784770948948        108.627166119455        2.87184231999654      0.0371231339817469      -0.101704875836061
24        111.059254756203        117.189284715332        108.697826743058      -0.993247264576661       -3.20254766506944       0.019189945960139
25        121.583678240188        115.988948857566        108.653805779448        1.00073614436163      -0.611756458033547     -0.0446800517353709
26        110.423439638755        116.017499042948        108.693603064283       -2.80967136504738      -0.599405948564696       0.204346185954185
27        121.645857820895        118.222583915997        108.693515775071      -0.598855177697868       0.391658802211529    -0.00527316514057342
28        121.568105164398        113.752624447393        108.611356877698       0.311991694111512       0.180076610498979    -0.00750107530040759
29        110.365325049376        118.180135785944        108.662364298648        1.66743098033409        1.16502665368277     -0.0764748253994371
30         110.36747610871         113.79008003518         108.66010911845       -0.77883658926476       0.490239594531513      0.0625959652199661
31         112.62895219299         112.64454017084        108.685939370747      -0.179592391828307      0.0965399608709961    -0.00130086027391198
32        112.587779497152        119.345159317762        108.651529996552       0.432627071870032       0.278321875908454       0.012548652019495
33        119.395128044483        112.637078246163        108.671668511531       0.156453168476152      0.0893554762776784     0.00471169976885476
34         119.40335434033        119.387096393577        108.686658133188     0.00256539088982784    -0.00105719760360126    -0.00819826791498742
35        114.942152749529        112.548826740541        108.636720176662       0.486888129229346       0.224492153381622     0.00097926819595122
36         114.96553790649        119.411834943949        108.666966797808       0.853884782838526      -0.378835944069011     -0.0202272986741647
37        117.004514226421        112.557547212138        108.643376302399      -0.531636164414055       0.234578491372835      -0.012378790398148
38        117.027397289582        119.420053322636        108.673120832051      -0.734376978527335      -0.312481379232447      0.0043477086856275
39                     100                     100              105.656854                       0                       0                       0
40                     100                     100              102.828427                       0                       0                       0
41                     100                     100                     100                       0                       0                       0
42                     102                     102              105.656854                       0                       0                       0
43                     102                     102              102.828427                       0                       0                       0
44                     102                     102                     100                       0                       0                       0
45                     104                     100              105.656854                       0                       0                       0
46                     104                     100              102.828427                       0                       0                       0
47                     104                     100                     100                       0                       0                       0
48                     106                     102              105.656854                       0                       0                       0
49                     106                     102              102.828427                       0                       0                       0
50                     106                     102                     100                       0                       0                       0
51                     108                     100              105.656854                       0                       0                       0
52                     108                     100              102.828427                       0                       0                       0
53                     108                     100                     100                       0                       0                       0
54                     110                     102              105.656854                       0                       0                       0
55                     110                     102              102.828427                       0                       0                       0
56                     110                     102                     100                       0                       0                       0
57                     112                     100              105.656854                       0                       0                       0
58                     112                     100              102.828427                       0                       0                       0
59                     112                     100                     100                       0                       0                       0
60                     114                     102              105.656854                       0                       0                       0
61                     114                     102              102.828427                       0                       0                       0
62                     114                     102                     100                       0                       0                       0
63                     116                     100              105.656854                       0                       0                       0
64                     116                     100              102.828427                       0                       0                       0
65                     116                     100                     100                       0                       0                       0
66                     118                     102              105.656854                       0                       0                       0
67                     118                     102              102.828427                       0                       0                       0
68                     118                     102                     100                       0                       0                       0
69                     120                     100              105.656854                       0                       0                       0
70                     120                     100              102.828427                       0                       0                       0
71                     120                     100                     100                       0                       0                       0
72                     122                     102              105.656854                       0                       0                       0
73                     122                     102              102.828427                       0                       0                       0
74                     122                     102                     100                       0                       0                       0
75                     124                     100              105.656854                       0                       0                       0
76                     124                     100              102.828427                       0                       0                       0
77                     124                     100                     100                       0                       0                       0
78                     126                     102              105.656854                       0                       0                       0
79                     126                     102              102.828427                       0                       0                       0
80                     126                     102                     100                       0                       0                       0
81                     128                     100              105.656854                       0                       0                       0
82                     128                     100              102.828427                       0                       0                       0
83                     128                     100                     100                       0                       0                       0
84                     130                     102              105.656854                       0                       0                       0
85                     130                     102              102.828427                       0                       0                       0
86                     130                     102                     100                       0                       0                       0
87                     100                     104              105.656854                       0                       0                       0
88                     100                     104              102.828427                       0                       0                       0
89                     100                     104                     100                       0                       0                       0
90                     102                     106              105.656854                       0                       0                       0
91                     102                     106              102.828427                       0                       0                       0
92                     102                     106                     100                       0                       0                       0
93                     104                     104              105.656854                       0                       0                       0
94                     104                     104              102.828427                       0                       0                       0
95                     104                     104                     100                       0                       0                       0
96                     106                     106              105.656854                       0                       0                       0
97                     106                     106              102.828427                       0                       0                       0
98                     106                     106                     100                       0                       0                       0
99                     108                     104              105.656854                       0                       0                       0
100                     108                     104              102.828427                       0                       0                       0
101                     108                     104                     100                       0                       0                       0
102                     110                     106              105.656854                       0                       0                       0
103                     110                     106              102.828427                       0                       0                       0
104                     110                     106                     100                       0                       0                       0
105                     112                     104              105.656854                       0                       0                       0
106                     112                     104              102.828427                       0                       0                       0
107                     112                     104                     100                       0                       0                       0
108                     114                     106              105.656854                       0                       0                       0
109                     114                     106              102.828427                       0                       0                       0
110                     114                     106                     100                       0                       0                       0
111                     116                     104              105.656854                       0                       0                       0
112                     116                     104              102.828427                       0                       0                       0
113                     116                     104                     100                       0                       0                       0
114                     118                     106              105.656854                       0                       0                       0
115                     118                     106              102.828427                       0                       0                       0
116                     118                     106                     100                       0                       0                       0
117                     120                     104              105.656854                       0                       0                       0
118                     120                     104              102.828427                       0                       0                       0
119                     120                     104                     100                       0                       0                       0
120                     122                     106              105.656854                       0                       0                       0
121                     122                     106              102.828427                       0                       0                       0
122                     122                     106                     100                       0                       0                       0
123                     124                     104              105.656854                       0                       0                       0
124                     124                     104              102.828427                       0                       0                       0
125                     124                     104                     100                       0                       0                       0
126                     126                     106              105.656854                       0                       0                       0
127                     126                     106              102.828427                       0                       0                       0
128                     126                     106                     100                       0                       0                       0
129                     128                     104              105.656854                       0                       0                       0
130                     128                     104              102.828427                       0                       0                       0
131                     128                     104                     100                       0                       0                       0
132                     130                     106              105.656854                       0                       0                       0
133                     130                     106              102.828427                       0                       0                       0
134                     130                     106                     100                       0                       0                       0
135                     100                     108              105.656854                       0                       0                       0
136                     100                     108              102.828427                       0                       0                       0
137                     100                     108                     100                       0                       0                       0
138                     102                     110              105.656854                       0                       0                       0
139                     102                     110              102.828427                       0                       0                       0
140                     102                     110                     100                       0                       0                       0
141                     104                     108              105.656854                       0                       0                       0
142                     104                     108              102.828427                       0                       0                       0
143                     104                     108                     100                       0                       0                       0
144                     106                     110              105.656854                       0                       0                       0
145                     106                     110              102.828427                       0                       0                       0
146                     106                     110                     100                       0                       0                       0
147                     108                     108              105.656854                       0                       0                       0
148                     108                     108              102.828427                       0                       0                       0
149                     108                     108                     100                       0                       0                       0
150                     110                     110              105.656854                       0                       0                       0
151                     110                     110              102.828427                       0                       0                       0
152                     110                     110                     100                       0                       0                       0
153                     112                     108              105.656854                       0                       0                       0
154                     112                     108              102.828427                       0                       0                       0
155                     112                     108                     100                       0                       0                       0
156                     114                     110              105.656854                       0                       0                       0
157                     114                     110              102.828427                       0                       0                       0
158                     114                     110                     100                       0                       0                       0
159                     116                     108              105.656854                       0                       0                       0
160                     116                     108              102.828427                       0                       0                       0
161                     116                     108                     100                       0                       0                       0
162                     118                     110              105.656854                       0                       0                       0
163                     118                     110              102.828427                       0                       0                       0
164                     118                     110                     100                       0                       0                       0
165                     120                     108              105.656854                       0                       0                       0
166                     120                     108              102.828427                       0                       0                       0
167                     120                     108                     100                       0                       0                       0
168                     122                     110              105.656854                       0                       0                       0
169                     122                     110              102.828427                       0                       0                       0
170                     122                     110                     100                       0                       0                       0
171                     124                     108              105.656854                       0                       0                       0
172                     124                     108              102.828427                       0                       0                       0
173                     124                     108                     100                       0                       0                       0
174                     126                     110              105.656854                       0                       0                       0
175                     126                     110              102.828427                       0                       0                       0
176                     126                     110                     100                       0                       0                       0
177                     128                     108              105.656854                       0                       0                       0
178                     128                     108              102.828427                       0                       0                       0
179                     128                     108                     100                       0                       0                       0
180                     130                     110              105.656854                       0                       0                       0
181                     130                     110              102.828427                       0                       0                       0
182                     130                     110                     100                       0                       0                       0
183                     100                     112              105.656854                       0                       0                       0
184                     100                     112              102.828427                       0                       0                       0
185                     100                     112                     100                       0                       0                       0
186                     102                     114              105.656854                       0                       0                       0
187                     102                     114              102.828427                       0                       0                       0
188                     102                     114                     100                       0                       0                       0
189                     104                     112              105.656854                       0                       0                       0
190                     104                     112              102.828427                       0                       0                       0
191                     104                     112                     100                       0                       0                       0
192                     106                     114              105.656854                       0                       0                       0
193                     106                     114              102.828427                       0                       0                       0
194                     106                     114                     100                       0                       0                       0
195                     108                     112              105.656854                       0                       0                       0
196                     108                     112              102.828427                       0                       0                       0
197                     108                     112                     100                       0                       0                       0
198                     110                     114              105.656854                       0                       0                       0
199                     110                     114              102.828427                       0                       0                       0
200                     110                     114                     100                       0                       0                       0
201                     112                     112              105.656854                       0                       0                       0