ITEM: TIMESTEP
0
ITEM: NUMBER OF ATOMS
422
ITEM: BOX BOUNDS ff ff ff
0.0000000000000000e+00 2.3200000000000000e+02
0.0000000000000000e+00 2.3200000000000000e+02
0.0000000000000000e+00 2.3200000000000000e+02
ITEM: ATOMS id xu yu zu fx fy fz
1        114.645932193839        115.983520815677              108.656854     0.00934940552849809   -0.000646212704572225      0.0114139440318611
2        120.327484840071        115.989226241634              108.656854    -0.00819780855058241    -0.00116102532484071    -0.00500640858392078
3        118.902344993917        115.987795112765              108.656854     0.00672746953988389     0.00317080742489484     0.00821408432479531
4        116.071072038949        115.984951942936              108.656854     0.00274140549242572     0.00295298190831563    -0.00011397327415257
5        118.201075167769        114.749724850164              108.656854       0.013368000789609      0.0418429408734653       0.130417542655889
6        116.774826990867        114.748292608712              108.656854     -0.0183232094731094      0.0180852668010995       0.045483245666351
7        116.772341865028        117.223022205388              108.656854     -0.0176567121175154     -0.0104430176079031      0.0434557329605816
8        118.198590041422        117.224454446583              108.656854      0.0128826989115172     -0.0346083435420572       0.126554248156268
9        116.017756920757        113.548446241175              108.656854     -0.0054317418121635     -0.0156847547300786      0.0134064240697606
10        118.960553482731        113.551401403886              108.656854      0.0290353263562388     -0.0281299563248014      0.0995052507842656
11        116.012863550773        118.421345651893              108.656854     -0.0048988731798625    -0.00330618042128818      0.0158130236729945
12        118.955660110655        118.424300814179              108.656854      0.0302063147950689     0.00933011203789917       0.103515265469212
13        114.627311260236        113.562444587898              108.656854       0.052371519376693     -0.0351310933910404       0.143739726182328
14        114.622448808114        118.404554762274              108.656854      0.0528721352576528      0.0178586512241609        0.14875820953388
15        120.350968226168        113.568192293572              108.656854     -0.0494243358080166     -0.0175272921614568      0.0262180167214862
16        120.346105771496         118.41030247058              108.656854      -0.048656109102844     0.00218920477711531       0.027870556253761
17        113.926795838139         117.19431994364              108.656854    0.000448230243209871     -0.0301031934832837       0.125067150413262
18         113.92922905874        114.771279815063              108.656854    0.000435556898396255      0.0393144199503064       0.130439879967775
19        121.046621196692        114.778427112272              108.656854     -0.0183631147594172      0.0214200082617416      0.0667852355877362
20        121.044187975028         117.20146724296              108.656854     -0.0180315791620774      -0.012602381077564      0.0646185343943207
21        122.455135022624        114.824435085822              108.656854       0.115743846805496       0.138153348411982      0.0485052927834865
22        122.452791362251        117.158288229576              108.656854       0.112508919709967      -0.041079275925525      0.0430735575372412
23        112.520625673161        114.814458829493              108.656854      0.0113556272806264       0.116235641819158      0.0459380659929533
24        112.518282013145        117.148311972274              108.656854      0.0127268902388606    -0.00803023053287274      0.0419752703455284
25        123.086726460739        115.991997078118              108.656854     -0.0217601801856607     -0.0252301478132974     -0.0187981807135536
26        111.886690574472        115.980749978664              108.656854     -0.0172259848416497      -0.028147695287896     -0.0568193425112802
27        123.109196045824        118.185922140926              108.656854     -0.0752346975706612     -0.0445469647639135       0.100853284222827
28          123.1136022867        113.798121569695              108.656854      -0.083118373544842     -0.0744999831755802      0.0898587611068191
29        111.859814750727        118.174625487296              108.656854     0.00658528266545476     -0.0595700745614678   -0.000915744020067676
30         111.86422099026         113.78682491673              108.656854     0.00792793723612298     -0.0760490504254538     -0.0134077071205887
31        114.099866822243        112.615454800093              108.656854     -0.0305809422582228      0.0238930948019401    -0.00805645048200262
32        114.093103500599        119.350483321209              108.656854     -0.0304600011297356      0.0184661317093985     -0.0139555104159334
33        120.880313532952        112.622263734631              108.656854      0.0869275518688936      0.0260704777052231   -9.04667141344703e-05
34        120.873550207142        119.357292260389              108.656854      0.0840275024124185      0.0136624381028173    -0.00548562023820276
35        116.462286572867         112.56896056388              108.656854       0.020727664407581      0.0158998180906437     0.00482306259868197
36        116.455425108682        119.401722146141              108.656854      0.0199473981633225      0.0115150273343244    0.000859512525945684
37        118.517991924022        112.571024909739              108.656854      0.0066570197991403      0.0136788432532046    -0.00708611300691231
38        118.511130457531        119.403786490585              108.656854     0.00555896736330349      0.0133103453496283     -0.0108128602527011
39                     100                     100              105.656854       0.212422518365419       0.213909673483525      -0.975697669679883
40                     100                     100              102.828427       0.431784361780372       0.430458376513532   -0.000361141996048109
41                     100                     100                     100       0.212334251738488       0.213446713341484       0.976317666261324
42                     102                     102              105.656854      -0.344984090388764      -0.347449808539022      -0.277939589270342
43                     102                     102              102.828427     -0.0504743623388812     -0.0483528233758628    0.000662507515887748
44                     102                     102                     100      -0.344813814887213      -0.346508642452138       0.276837519787982
45                     104                     100              105.656854      0.0962242428899533       0.960286096917932      -0.808898150968704
46                     104                     100              102.828427     -0.0641154454873548       0.726488884736026   -0.000354191743099873
47                     104                     100                     100       0.096401450843506        0.95963146112786       0.809476668968226
48                     106                     102              105.656854      -0.149984051946615      -0.515445158513809      -0.381586689817202
49                     106                     102              102.828427       0.142844642122642      0.0670114867338881    0.000597716880164913
50                     106                     102                     100      -0.150506660922728      -0.514130177528152       0.380651212321571
51                     108                     100              105.656854        0.10988787640318         1.0608676757045       -0.80173440861939
52                     108                     100              102.828427      -0.111758027963445       0.639260931932196   -9.82241895407733e-06
53                     108                     100                     100       0.110697826470049        1.06046198936675       0.801704349954162
54                     110                     102              105.656854      -0.143447297899594      -0.583618727475553      -0.374301702363606
55                     110                     102              102.828427       0.148017987953296        0.13601094540981   -0.000333806489148495
56                     110                     102                     100      -0.145470916114733      -0.583331640157451       0.374931953340922
57                     112                     100              105.656854       0.131201313340085        1.10946321538234      -0.810432615004024
58                     112                     100              102.828427       -0.13504196275186       0.588711895758425    0.000824838564108699
59                     112                     100                     100       0.132494235269483         1.1103123911561       0.809010241900958
60                     114                     102              105.656854      -0.162170924768119      -0.620220495491222      -0.361775082239876
61                     114                     102              102.828427       0.167498022530253       0.175715782763414    -0.00213328373344406
62                     114                     102                     100      -0.164424700571936      -0.623154286564376       0.365324143576894
63                     116                     100              105.656854       0.165361759551787        1.14401994303487      -0.821188429389032
64                     116                     100              102.828427      -0.169813383526539       0.552214903724804     0.00160907436836693
65                     116                     100                     100       0.165914263089392        1.14629216423095       0.818483489018826
66                     118                     102              105.656854      -0.207470767406944      -0.649898953442115      -0.347679478680718
67                     118                     102              102.828427       0.212872921801592       0.207342316140819    -0.00294999786980575
68                     118                     102                     100      -0.207065396668083      -0.654463536195852       0.352541061507845
69                     120                     100              105.656854       0.222494375559158        1.18143952237057      -0.835470553560774
70                     120                     100              102.828427      -0.228056754887608       0.513713783648653     0.00147330870064208
71                     120                     100                     100       0.221628155829545        1.18345470194489       0.832986654687159
72                     122                     102              105.656854      -0.288692187570248      -0.685878700814906      -0.329742311098996
73                     122                     102              102.828427       0.293419286145107       0.242914431800752    -0.00167838271957011
74                     122                     102                     100      -0.286205185210619       -0.68793266162208       0.332557714903709
75                     124                     100              105.656854       0.326635635002834        1.23572117352601      -0.852333307062625
76                     124                     100              102.828427      -0.323174932146084       0.460252012206644    0.000584518402419855
77                     124                     100                     100       0.325385360411048        1.23616894551708       0.851307619867402
78                     126                     102              105.656854       -0.46272570884351      -0.726868873363029      -0.331784848220116
79                     126                     102              102.828427       0.397958602376319       0.281044638246652    7.84201900417051e-06
80                     126                     102                     100      -0.461097371627752      -0.726094450316568       0.331851615858145
81                     128                     100              105.656854       0.708812300704408        1.34042341558641      -0.754817160699114
82                     128                     100              102.828427      -0.281353235523359       0.396344767042306    -0.00014023050893747
83                     128                     100                     100       0.708188303911004        1.33987884879278       0.755011567751792
84                     130                     102              105.656854       -1.34127477782301      -0.708864561541209      -0.755427343809808
85                     130                     102              102.828427      -0.395298628575952       0.281038616372089    0.000661291755085801
86                     130                     102                     100       -1.34101528980453      -0.707596071281553       0.754370989468009
87                     100                     104              105.656854       0.959387628754402      0.0996001789918559      -0.808552605025761
88                     100                     104              102.828427       0.727362085878312      -0.066957354959749   -0.000892212098639658
89                     100                     104                     100       0.958825730808967      0.0986033631953705       0.810052299771895
90                     102                     106              105.656854      -0.514324276343984      -0.156102067454847      -0.382426571300483
91                     102                     106              102.828427      0.0658270836945914       0.147669214060018      0.0017969820942769
92                     102                     106                     100      -0.512996509057905      -0.153950044545987       0.379500105238852
93                     104                     104              105.656854       0.248233943014885       0.252639613965371      -0.388589685742987
94                     104                     104              102.828427      -0.180803869349472      -0.184387951170955    -0.00129986663504268
95                     104                     104                     100       0.247900805814484       0.250566108209869       0.390681024165134
96                     106                     106              105.656854       -0.23573456067539      -0.244451617792899      -0.504484284178278
97                     106                     106              102.828427       0.227061251809219       0.233503955957485      0.0027313356928614
98                     106                     106                     100      -0.235143820964458      -0.239443396377984       0.500154287490163
99                     108                     104              105.656854       0.174856684636566       0.340139583050143      -0.374746958626135
100                     108                     104              102.828427      -0.178197582020142      -0.269873623292831   -0.000962339307379842
101                     108                     104                     100       0.176566315172462        0.33742873112241       0.376206169156103
102                     110                     106              105.656854        -0.1849409608511      -0.298267844605108      -0.492187726838036
103                     110                     106              102.828427       0.193367301492675       0.288398982182741     0.00109049734800727
104                     110                     106                     100      -0.191147852323887      -0.293124899782333       0.490434503975958
105                     112                     104              105.656854       0.166000701875841       0.383096955992009      -0.389670578735046
106                     112                     104              102.828427      -0.173264341700493      -0.316606193971782     0.00169469106280576
107                     112                     104                     100        0.17105826640133        0.38446115505203        0.38680808208778
108                     114                     106              105.656854      -0.182211515548656      -0.313719969990437      -0.469532673446001
109                     114                     106              102.828427       0.193865802216044       0.314533740765718    -0.00623852627534256
110                     114                     106                     100      -0.193102365200157      -0.323382184941972       0.480252629731674
111                     116                     104              105.656854       0.193999385881527       0.405640313413567      -0.406200180952009
112                     116                     104              102.828427      -0.200599075464417      -0.344325494135427     0.00507731431943005
113                     116                     104                     100       0.196543747188168       0.413967715357822       0.397859285109939
114                     118                     106              105.656854      -0.233938645833849      -0.325049103356213      -0.449164046362357
115                     118                     106              102.828427       0.239135749232785       0.332359939260047     -0.0101699411761352
116                     118                     106                     100      -0.231899248176495      -0.343543651844064       0.466593340196708
117                     120                     104              105.656854       0.258834942598564       0.431913295727748      -0.422911793205394
118                     120                     104              102.828427      -0.263685788086001      -0.370599309272269     0.00445314911408266
119                     120                     104                     100        0.25490700084246       0.438905588121509       0.415579297663833
120                     122                     106              105.656854      -0.321044282863378      -0.355059912955998      -0.434966458968616
121                     122                     106              102.828427       0.320843462900726       0.353888937342542    -0.00413692460292101
122                     122                     106                     100      -0.309608592205783      -0.360002282897466       0.442058657911159
123                     124                     104              105.656854       0.370167306076914       0.461322508025171      -0.439407161868507
124                     124                     104              102.828427      -0.363708564478571       -0.39623195321897    0.000790291496535807
125                     124                     104                     100       0.365729770464057       0.461027132975358       0.438011796568738
126                     126                     106              105.656854      -0.470171955266023      -0.368948319651458      -0.441373790046896
127                     126                     106              102.828427       0.403594817423547        0.36088987773189     0.00201789695843798
128                     126                     106                     100      -0.466415848831198      -0.362815463738541       0.438136762532917
129                     128                     104              105.656854       0.729531963905962       0.462509757363265      -0.330654849259576
130                     128                     104              102.828427      -0.283794888476329      -0.396975259731034    -0.00119704709869381
131                     128                     104                     100       0.728597458783761       0.459750524737094       0.332510132298378
132                     130                     106              105.656854       -1.23757458170367      -0.329695912552807      -0.854092746191091
133                     130                     106              102.828427        -0.4578123199055       0.324533761318287     0.00254280861476018
134                     130                     106                     100       -1.23867408525653      -0.325553204426495       0.850050075531971
135                     100                     108              105.656854        1.06277994283492        0.11555728302833      -0.800453337557611
136                     100                     108              102.828427       0.638101856599432      -0.116271104719797    -0.00189243303306549
137                     100                     108                     100        1.06092789200182        0.11394545155469       0.803573994467354
138                     102                     110              105.656854      -0.588892895287624      -0.153322723230259      -0.377535362110941
139                     102                     110              102.828427       0.138896034653768       0.155222409092046     0.00390273264149031
140                     102                     110                     100      -0.584391077589655      -0.150147548366911       0.371254751601981
141                     104                     108              105.656854       0.339242811204466       0.186987627401158      -0.372348168422751
142                     104                     108              102.828427      -0.268356574259529      -0.186772614217155    -0.00391147696718155
143                     104                     108                     100       0.335793433100592       0.181988384798662       0.378606311269293
144                     106                     110              105.656854      -0.300368067404327      -0.211551379843177      -0.500736461551048
145                     106                     110              102.828427        0.28665300994677       0.208881933284135      0.0090447642540009
146                     106                     110                     100      -0.290614110909066      -0.199398880957405       0.485391502984483
147                     108                     108              105.656854       0.230017825454144       0.249987741282265      -0.358991955251248
148                     108                     108              102.828427       -0.23301254023976      -0.245301413566041    -0.00594779477296628
149                     108                     108                     100        0.22971535721608       0.236671599243592       0.369310992269449
150                     110                     110              105.656854      -0.212924518849302      -0.268289663589115      -0.501076009533198
151                     110                     110              102.828427       0.223877929223868       0.247525366864516      0.0113702104794743
152                     110                     110                     100      -0.223638428471117      -0.234294220696176        0.47170290915391
153                     112                     108              105.656854       0.177685184035202       0.274067378375843      -0.383383365776663
154                     112                     108              102.828427      -0.197912291399775        -0.2754498207002     0.00176215171922912
155                     112                     108                     100       0.200532845689788       0.269384210944247       0.381064871865906
156                     114                     110              105.656854      -0.149464451959544      -0.213060923511752       -0.41134074839932
157                     114                     110              102.828427       0.200086221582052       0.253077187579451     -0.0161243368154137
158                     114                     110                     100      -0.209676682283116      -0.251154821717213       0.465955467144468
159                     116                     108              105.656854       0.203432172954401       0.253869456520247      -0.423491993949316
160                     116                     108              102.828427      -0.217612830940654      -0.283209498229831      0.0176476762294969
161                     116                     108                     100        0.21633780857752       0.286464563554359       0.389525195237592
162                     118                     110              105.656854      -0.253481094980217      -0.183944671027515      -0.356807180119429
163                     118                     110              102.828427       0.253986434679864       0.254105866955264     -0.0326451971379212
164                     118                     110                     100      -0.244387237931019      -0.259134156320625       0.454889258529133
165                     120                     108              105.656854       0.292348386891467       0.272994537432216      -0.437983118487035
166                     120                     108              102.828427      -0.286614026920901      -0.297832158164612      0.0146124760175098
167                     120                     108                     100        0.27202362600651       0.298803780336688       0.409811490864453
168                     122                     110              105.656854      -0.380264064843715      -0.253486948028862      -0.399851870538044
169                     122                     110              102.828427       0.338327594753197       0.270036118838096    -0.00699719425906224
170                     122                     110                     100      -0.315748438934042      -0.263640947382325       0.423617702297038
171                     124                     108              105.656854       0.387023853489921       0.315713448005486      -0.433909959834406
172                     124                     108              102.828427      -0.373065747910257      -0.313179649884124    -0.00180266245491276
173                     124                     108                     100       0.370650773233649       0.303956950174325       0.438331178838848
174                     126                     110              105.656854      -0.447166576984879      -0.284245923494335      -0.442620544049308
175                     126                     110              102.828427       0.386751161728977       0.268794520801745      0.0124786603715315
176                     126                     110                     100      -0.449732179011127      -0.254821093653866       0.414869143363026
177                     128                     108              105.656854       0.690774437514853       0.297190045892869      -0.324638591093895
178                     128                     108              102.828427       -0.24907273925197      -0.296244575682994    -0.00570939846768171
179                     128                     108                     100       0.693269711663125       0.286344122376867       0.334141424153878
180                     130                     110              105.656854        -1.1783403012485      -0.231922279078111      -0.841857587056388
181                     130                     110              102.828427      -0.512084321921597        0.23267248156917     0.00738457966049586
182                     130                     110                     100       -1.18670692973448      -0.223349663406705       0.829767182927024
183                     100                     112              105.656854        1.11679000038356       0.136922556605922      -0.807614517653974
184                     100                     112              102.828427        0.58384408593517      -0.139422802184974    -0.00313027547608859
185                     100                     112                     100        1.11294599929433       0.135490938635108       0.812716861986423
186                     102                     114              105.656854      -0.635380432447329      -0.169122177190761      -0.368238672840164
187                     102                     114              102.828427       0.184557776645603       0.172413522902073      0.0059254980643421
188                     102                     114                     100      -0.627222631726251      -0.167487848559388       0.358729150768627
189                     104                     112              105.656854       0.397697223125054       0.182966564574677      -0.380458604109335
190                     104                     112              102.828427      -0.323131776743677      -0.184149099019236    -0.00831327169999747
191                     104                     112                     100        0.38636239001014       0.177240300516167       0.393996149991626
192                     106                     114              105.656854      -0.351258634199804      -0.206155459263162      -0.497761841262803
193                     106                     114              102.828427       0.326588169922265       0.207175454469953      0.0168604288443616
194                     106                     114                     100      -0.325655763639916      -0.199670261838349       0.467222330797149
195                     108                     112              105.656854       0.293138915933459       0.238151741588342      -0.343260587566238
196                     108                     112              102.828427      -0.272611232838648      -0.223444179301352     -0.0197737296616696
197                     108                     112                     100       0.265027117240676       0.211636539745699       0.390871307112633
198                     110                     114              105.656854      -0.249429797170481       -0.21571177942638      -0.585046879463742
199                     110                     114              102.828427       0.240962411621305       0.229336638761809        0.02847177837409
200                     110                     114                     100      -0.243142888250922      -0.221039538665937       0.450761998175491
201                     112                     112              105.656854       0.122114053595108       0.281295381777298      -0.318548712641101