ITEM: TIMESTEP
0
ITEM: NUMBER OF ATOMS
422
ITEM: BOX BOUNDS pp pp pp
0.0000000000000000e+00 3.2000000000000000e+01
0.0000000000000000e+00 3.2000000000000000e+01
0.0000000000000000e+00 3.2000000000000000e+01
ITEM: ATOMS id xu yu zu fx fy fz
1        13.1771215772851        16.0147101991238        8.68803938344648       -4.31159594969474       -4.92237289659564       -1.10609090669443
2        18.8741383406411        16.0358797422044        8.70350350056999        -7.8526923163222       -7.73921541102848       -1.74223858700079
3        17.3815128056469        15.9669629244949        8.63601781172993        3.74766067173417        3.45817779538697       0.851347799293832
4        14.5492761874734        15.9631560914602        8.63505414852437        3.86049517304769         4.1408702207999         1.0326549863418
5        16.7371405350584        14.7857902174529        8.69291536728922       -4.43015876758633       -4.71721886082148      -0.860155901625232
6        15.2596699803937        14.7331355982382        8.64169298952632        1.18162831816121       0.461097457648019       0.205436496514504
7        15.3088975437996        17.2595778841598        8.69340567877207       -5.56774016009777       -5.48866260150621       -1.10089716914634
8        16.6509932013884        17.1768576065494        8.60925315996689        3.96652197997905        3.17166775629913       0.549062811454607
9         14.492883109503        13.5235724299207        8.63197618874557       0.233488994137857       0.120641104955272       -0.10380904599071
10        17.4630101816887        13.5538581028434        8.65930669895739       -1.30860932733789      -0.728645328257084      0.0114140647959636
11        14.5270431751186        18.4355252762387        8.67102962434569       -1.27518540329737       -1.18580113445449     -0.0417743652427003
12        17.4153656005171        18.3840063040408        8.61655548986189       0.744247876971037       0.170412763707316     -0.0321691458977707
13        13.0955975231159        13.5307308507777        8.62513626288012        1.34868191663755        1.90117926747851      0.0218533253337174
14        13.1124159793871        18.3945219335478        8.64681717127345        1.74343607607175        2.29166666666923       0.539609101854002
15        18.8220047484519        13.5392288158559        8.62788652228386       0.673566337891248      0.0188106509090977      0.0304737314740428
16        18.8239654852541        18.3881621843383        8.63470971375788       -1.49408834127853       -1.33090529099013      -0.296213069104026
17        12.4340009022421         17.201525007743        8.66405506410309       -1.44696842822081       -1.21223829348696      -0.459671198204724
18        12.3985334890902        14.7405842454141        8.62615443035065        4.80015550526329        4.66096436199426       0.924975480776557
19         19.503490839045        14.7352967546249        8.61371964235279        6.61848218742796        6.01690064274082        1.88542725035447
20        19.5131797878745        17.1704590558058        8.62584181284622        4.39363811444031        4.73150877646207       0.880517666221542
21        20.9944309596175        14.8637310228159        8.69614593699349       -8.24191363775821       -8.81529557229961       -1.73163163999273
22        20.9537990725837        17.1592959399088        8.65785771033298       -2.53129370100591       -2.28603034330324      -0.824008310807418
23        11.0598544662621        14.8536876225936        8.69607879310102       -4.24465314051255       -4.36727847619686      -0.742974189471958
24        10.9813062513027         17.111336210431        8.61987423815731        6.74139794909316        7.75236459858182        1.15706234292563
25        21.5515193717991        15.9567899891774        8.62164291105965        5.02344398322222        5.84831838754503       0.851335823059253
26        10.4224489856864        16.0165083898792         8.6926084112148       -3.34122337629198       -3.90165071665036     -0.0355431986293785
27        21.6137955122758        18.1905216073782        8.66144946645181     -0.0223297885441418      -0.412129248792686     -0.0449360174395213
28        21.6173004968297        13.8018197798243        8.66054821012955        1.17797492689421        1.73328703749063       0.331647548338813
29        10.3763347629442        18.1911454995131        8.67337001221676       -1.25392764107647       -2.25589131383507      -0.401443300200312
30        10.3775777258026        13.8001816522719        8.67020673554214        0.94984262159274        2.34719729204183       0.354457202067941
31        12.6239733819714         12.639561359822        8.68095655972873       -1.30020151024653       -1.93827105360353     -0.0636043901481106
32        12.6421135130533        19.3994933336633        8.70586001245403       -0.43149817433822       -1.11163430608302      -0.300660159584994
33        19.3608658639731        12.6028160656525        8.63740233102118      -0.077620004007873      -0.141349399254046     -0.0854259631278273
34        19.3360063384824        19.3197483917289        8.61930613133998       0.351142915214488       0.545512193036758      0.0312875764059543
35        14.9293323651895        12.5360063562022        8.62389579232262        0.11070128487808       0.186081744464305      0.0860098594322144
36        14.9266762643156        19.3729733017744         8.6281011556336       0.763747157386124        1.58502148837667      0.0631957255827385
37        16.9811390024187        12.5341719881365        8.61999707839717       0.671865343400427        1.51032635680878       0.181608616958798
38        16.9788381728257        19.3714942058793        8.62455771529469       0.029580334172926     -0.0974163162375278     -0.0161308508773975
39                       0                       0                5.656854                       0                       0                       0
40                       0                       0                2.828427                       0                       0                       0
41                       0                       0                       0                       0                       0                       0
42                       2                       2                5.656854                       0                       0                       0
43                       2                       2                2.828427                       0                       0                       0
44                       2                       2                       0                       0                       0                       0
45                       4                       0                5.656854                       0                       0                       0
46                       4                       0                2.828427                       0                       0                       0
47                       4                       0                       0                       0                       0                       0
48                       6                       2                5.656854                       0                       0                       0
49                       6                       2                2.828427                       0                       0                       0
50                       6                       2                       0                       0                       0                       0
51                       8                       0                5.656854                       0                       0                       0
52                       8                       0                2.828427                       0                       0                       0
53                       8                       0                       0                       0                       0                       0
54                      10                       2                5.656854                       0                       0                       0
55                      10                       2                2.828427                       0                       0                       0
56                      10                       2                       0                       0                       0                       0
57                      12                       0                5.656854                       0                       0                       0
58                      12                       0                2.828427                       0                       0                       0
59                      12                       0                       0                       0                       0                       0
60                      14                       2                5.656854                       0                       0                       0
61                      14                       2                2.828427                       0                       0                       0
62                      14                       2                       0                       0                       0                       0
63                      16                       0                5.656854                       0                       0                       0
64                      16                       0                2.828427                       0                       0                       0
65                      16                       0                       0                       0                       0                       0
66                      18                       2                5.656854                       0                       0                       0
67                      18                       2                2.828427                       0                       0                       0
68                      18                       2                       0                       0                       0                       0
69                      20                       0                5.656854                       0                       0                       0
70                      20                       0                2.828427                       0                       0                       0
71                      20                       0                       0                       0                       0                       0
72                      22                       2                5.656854                       0                       0                       0
73                      22                       2                2.828427                       0                       0                       0
74                      22                       2                       0                       0                       0                       0
75                      24                       0                5.656854                       0                       0                       0
76                      24                       0                2.828427                       0                       0                       0
77                      24                       0                       0                       0                       0                       0
78                      26                       2                5.656854                       0                       0                       0
79                      26                       2                2.828427                       0                       0                       0
80                      26                       2                       0                       0                       0                       0
81                      28                       0                5.656854                       0                       0                       0
82                      28                       0                2.828427                       0                       0                       0
83                      28                       0                       0                       0                       0                       0
84                      30                       2                5.656854                       0                       0                       0
85                      30                       2                2.828427                       0                       0                       0
86                      30                       2                       0                       0                       0                       0
87                       0                       4                5.656854                       0                       0                       0
88                       0                       4                2.828427                       0                       0                       0
89                       0                       4                       0                       0                       0                       0
90                       2                       6                5.656854                       0                       0                       0
91                       2                       6                2.828427                       0                       0                       0
92                       2                       6                       0                       0                       0                       0
93                       4                       4                5.656854                       0                       0                       0
94                       4                       4                2.828427                       0                       0                       0
95                       4                       4                       0                       0                       0                       0
96                       6                       6                5.656854                       0                       0                       0
97                       6                       6                2.828427                       0                       0                       0
98                       6                       6                       0                       0                       0                       0
99                       8                       4                5.656854                       0                       0                       0
100                       8                       4                2.828427                       0                       0                       0
101                       8                       4                       0                       0                       0                       0
102                      10                       6                5.656854                       0                       0                       0
103                      10                       6                2.828427                       0                       0                       0
104                      10                       6                       0                       0                       0                       0
105                      12                       4                5.656854                       0                       0                       0
106                      12                       4                2.828427                       0                       0                       0
107                      12                       4                       0                       0                       0                       0
108                      14                       6                5.656854                       0                       0                       0
109                      14                       6                2.828427                       0                       0                       0
110                      14                       6                       0                       0                       0                       0
111                      16                       4                5.656854                       0                       0                       0
112                      16                       4                2.828427                       0                       0                       0
113                      16                       4                       0                       0                       0                       0
114                      18                       6                5.656854                       0                       0                       0
115                      18                       6                2.828427                       0                       0                       0
116                      18                       6                       0                       0                       0                       0
117                      20                       4                5.656854                       0                       0                       0
118                      20                       4                2.828427                       0                       0                       0
119                      20                       4                       0                       0                       0                       0
120                      22                       6                5.656854                       0                       0                       0
121                      22                       6                2.828427                       0                       0                       0
122                      22                       6                       0                       0                       0                       0
123                      24                       4                5.656854                       0                       0                       0
124                      24                       4                2.828427                       0                       0                       0
125                      24                       4                       0                       0                       0                       0
126                      26                       6                5.656854                       0                       0                       0
127                      26                       6                2.828427                       0                       0                       0
128                      26                       6                       0                       0                       0                       0
129                      28                       4                5.656854                       0                       0                       0
130                      28                       4                2.828427                       0                       0                       0
131                      28                       4                       0                       0                       0                       0
132                      30                       6                5.656854                       0                       0                       0
133                      30                       6                2.828427                       0                       0                       0
134                      30                       6                       0                       0                       0                       0
135                       0                       8                5.656854                       0                       0                       0
136                       0                       8                2.828427                       0                       0                       0
137                       0                       8                       0                       0                       0                       0
138                       2                      10                5.656854                       0                       0                       0
139                       2                      10                2.828427                       0                       0                       0
140                       2                      10                       0                       0                       0                       0
141                       4                       8                5.656854                       0                       0                       0
142                       4                       8                2.828427                       0                       0                       0
143                       4                       8                       0                       0                       0                       0
144                       6                      10                5.656854                       0                       0                       0
145                       6                      10                2.828427                       0                       0                       0
146                       6                      10                       0                       0                       0                       0
147                       8                       8                5.656854                       0                       0                       0
148                       8                       8                2.828427                       0                       0                       0
149                       8                       8                       0                       0                       0                       0
150                      10                      10                5.656854                       0                       0                       0
151                      10                      10                2.828427                       0                       0                       0
152                      10                      10                       0                       0                       0                       0
153                      12                       8                5.656854                       0                       0                       0
154                      12                       8                2.828427                       0                       0                       0
155                      12                       8                       0                       0                       0                       0
156                      14                      10                5.656854                       0                       0                       0
157                      14                      10                2.828427                       0                       0                       0
158                      14                      10                       0                       0                       0                       0
159                      16                       8                5.656854                       0                       0                       0
160                      16                       8                2.828427                       0                       0                       0
161                      16                       8                       0                       0                       0                       0
162                      18                      10                5.656854                       0                       0                       0
163                      18                      10                2.828427                       0                       0                       0
164                      18                      10                       0                       0                       0                       0
165                      20                       8                5.656854                       0                       0                       0
166                      20                       8                2.828427                       0                       0                       0
167                      20                       8                       0                       0                       0                       0
168                      22                      10                5.656854                       0                       0                       0
169                      22                      10                2.828427                       0                       0                       0
170                      22                      10                       0                       0                       0                       0
171                      24                       8                5.656854                       0                       0                       0
172                      24                       8                2.828427                       0                       0                       0
173                      24                       8                       0                       0                       0                       0
174                      26                      10                5.656854                       0                       0                       0
175                      26                      10                2.828427                       0                       0                       0
176                      26                      10                       0                       0                       0                       0
177                      28                       8                5.656854                       0                       0                       0
178                      28                       8                2.828427                       0                       0                       0
179                      28                       8                       0                       0                       0                       0
180                      30                      10                5.656854                       0                       0                       0
181                      30                      10                2.828427                       0                       0                       0
182                      30                      10                       0                       0                       0                       0
183                       0                      12                5.656854                       0                       0                       0
184                       0                      12                2.828427                       0                       0                       0
185                       0                      12                       0                       0                       0                       0
186                       2                      14                5.656854                       0                       0                       0
187                       2                      14                2.828427                       0                       0                       0
188                       2                      14                       0                       0                       0                       0
189                       4                      12                5.656854                       0                       0                       0
190                       4                      12                2.828427                       0                       0                       0
191                       4                      12                       0                       0                       0                       0
192                       6                      14                5.656854                       0                       0                       0
193                       6                      14                2.828427                       0                       0                       0
194                       6                      14                       0                       0                       0                       0
195                       8                      12                5.656854                       0                       0                       0
196                       8                      12                2.828427                       0                       0                       0
197                       8                      12                       0                       0                       0                       0
198                      10                      14                5.656854                       0                       0                       0
199                      10                      14                2.828427                       0                       0                       0
200                      10                      14                       0                       0                       0                       0
201                      12                      12                5.656854                       0                       0                       0