ITEM: TIMESTEP
0
ITEM: NUMBER OF ATOMS
422
ITEM: BOX BOUNDS pp pp pp
0.0000000000000000e+00 3.2000000000000000e+01
0.0000000000000000e+00 3.2000000000000000e+01
0.0000000000000000e+00 3.2000000000000000e+01
ITEM: ATOMS id xu yu zu fx fy fz
1        13.1459321938386        15.9835208156773                10.85685    6.95340714426815e-05   -2.00146282121237e-06    -0.00431588645957471
2        18.8274848400711        15.9892262416344                10.85685   -6.87886132625805e-05   -1.31173001782582e-06    -0.00431881585355835
3         17.402344993917         15.987795112765                10.85685    5.75587533827703e-05   -1.51411527169772e-06    -0.00434229942338065
4         14.571072038949        15.9849519429358                10.85685   -5.57450314617925e-05   -1.87042874068384e-06    -0.00434471389801734
5        16.7010751677692        14.7497248501637                10.85685    6.94157676950032e-05   -6.82098376174246e-05     -0.0043682924632588
6        15.2748269908674        14.7482926087119                10.85685   -7.06953120947194e-05   -6.82858385275173e-05    -0.00437099044840339
7        15.2723418650276        17.2230222053877                10.85685   -7.06502871344868e-05    6.95255664695066e-05    -0.00436818093573547
8        16.6985900414216        17.2244544465825                10.85685    6.91287369575406e-05    6.92953664351078e-05    -0.00436526622807886
9        14.5177569207574        13.5484462411751                10.85685   -5.73993102444824e-05    5.12361947739626e-05    -0.00448037104869214
10        17.4605534827313        13.5514014038861                10.85685       5.92331439066e-05    5.08888423879728e-05     -0.0044787439915682
11        14.5128635507729         18.421345651893                10.85685   -5.70700042877705e-05     -4.835328142048e-05    -0.00448298346886555
12        17.4556601106552        18.4243008141789                10.85685    5.97125308610733e-05   -4.85464019412973e-05    -0.00448009139655863
13        13.1273112602358        13.5624445878976                10.85685    7.77011769789572e-05    4.85874412102199e-05    -0.00444535260210596
14        13.1224488081137        18.4045547622743                10.85685    7.79568776977031e-05   -4.54291446009477e-05     -0.0044471284482171
15         18.850968226168        13.5681922935721                10.85685   -7.71279426343514e-05    4.81395847759996e-05    -0.00444823953406664
16        18.8461057714963        18.4103024705805                10.85685   -7.70684214755528e-05   -4.61090202156608e-05    -0.00445030923500596
17         12.426795838139        17.1943199436399                10.85685    4.82087182586185e-05    6.90263779137875e-05    -0.00433746110081207
18        12.4292290587396        14.7712798150634                10.85685    4.85846537058859e-05   -6.77510609678369e-05    -0.00434136623490108
19        19.5466211966922        14.7784271122721                10.85685   -5.08179808686198e-05   -6.81376055613105e-05    -0.00434241734448561
20        19.5441879750283        17.2014672429596                10.85685    -5.0954251967663e-05    6.89006920519459e-05    -0.00434042678918747
21        20.9551350226241        14.8244350858224                10.85685     7.7013561904509e-05   -7.27182793047068e-05    -0.00438861358049998
22        20.9527913622507        17.1582882295758                10.85685    7.68795012788174e-05    7.32413043766088e-05    -0.00438641087280621
23        11.0206256731611        14.8144588294926                10.85685    -7.7218020618359e-05   -7.25425796768292e-05     -0.0043925420402506
24        11.0182820131454        17.1483119722736                10.85685   -7.69759818833413e-05    7.37237241588293e-05    -0.00438865507672222
25        21.5867264607395        15.9919970781177                10.85685    2.66934758328517e-05   -6.44734714753101e-07    -0.00256785424035781
26        10.3866905744716        15.9807499786644                10.85685   -2.52019354788917e-05   -1.55350249467797e-06    -0.00256903850580971
27         21.609196045824        18.1859221409264                10.85685    2.97252594387088e-05   -1.46986936075445e-05    -0.00267389219022054
28        21.6136022867001        13.7981215696947                10.85685    2.94161494410708e-05    1.59244780695584e-05    -0.00267370545468299
29        10.3598147507275        18.1746254872963                10.85685   -2.76452124996118e-05   -1.38565238006767e-05    -0.00267560700553419
30        10.3642209902605        13.7868249167297                10.85685   -2.79094959333566e-05    1.68071416084839e-05    -0.00267444119417922
31        12.5998668222426        12.6154548000933                10.85685    2.17830863583762e-05    2.21158257552888e-05    -0.00138451711668708
32        12.5931035005993        19.3504833212092                10.85685    2.17194122164154e-05   -2.28788346406206e-05    -0.00138562908553393
33        19.3803135329519        12.6222637346313                10.85685   -2.22867896353085e-05     2.2339814539785e-05    -0.00138557348231627
34        19.3735502071424         19.357292260389                10.85685   -2.25124267867656e-05   -2.28339077003436e-05     -0.0013866752324706
35        14.9622865728669        12.5689605638796                10.85685   -2.67107308908712e-05    2.24237946091036e-05    -0.00140249812613443
36         14.955425108682        19.4017221461408                10.85685   -2.67989106388091e-05    -2.3254889026517e-05    -0.00140403922862429
37        17.0179919240215        12.5710249097393                10.85685    2.67540986515711e-05    2.24110951158034e-05    -0.00140163603968489
38         17.011130457531        19.4037864905846                10.85685    2.68530306785579e-05   -2.30758327775471e-05    -0.00140234248839801
39                       0                       0                5.656854                       0                       0                       0
40                       0                       0                2.828427                       0                       0                       0
41                       0                       0                       0                       0                       0                       0
42                       2                       2                5.656854                       0                       0                       0
43                       2                       2                2.828427                       0                       0                       0
44                       2                       2                       0                       0                       0                       0
45                       4                       0                5.656854                       0                       0                       0
46                       4                       0                2.828427                       0                       0                       0
47                       4                       0                       0                       0                       0                       0
48                       6                       2                5.656854    5.46787576014855e-09    1.12181574759962e-08     5.0536851901692e-09
49                       6                       2                2.828427    7.61676961208328e-11    1.66416510055481e-10      1.177010690557e-10
50                       6                       2                       0                       0                       0                       0
51                       8                       0                5.656854    1.42082846537508e-10    1.19541529784421e-11    2.05408045542906e-10
52                       8                       0                2.828427                       0                       0                       0
53                       8                       0                       0                       0                       0                       0
54                      10                       2                5.656854    2.41188168288539e-08    9.44092758221935e-08    4.31996318652655e-08
55                      10                       2                2.828427    3.93998853162616e-10    1.53784286658849e-09    1.10245696202223e-09
56                      10                       2                       0                       0                       0                       0
57                      12                       0                5.656854    4.03546202582697e-10    6.98698600377611e-11    1.30122861522467e-09
58                      12                       0                2.828427    3.03763120174336e-11    1.34689524651502e-11     4.0879989469772e-10
59                      12                       0                       0                       0                       0                       0
60                      14                       2                5.656854    1.51157934782896e-08    2.27811974863929e-07    1.05534947119422e-07
61                      14                       2                2.828427     2.8458756404749e-10    3.80608022122393e-09    2.75482340269145e-09
62                      14                       2                       0                       0                       0                       0
63                      16                       0                5.656854   -2.62860350761293e-12    9.58254217744383e-11    2.05598106646654e-09
64                      16                       0                2.828427   -1.23454523462942e-12    2.22319150593761e-11    8.40582528577571e-10
65                      16                       0                       0                       0                       0                       0
66                      18                       2                5.656854   -1.54782351484664e-08    2.26606207528397e-07    1.04953657654092e-07
67                      18                       2                2.828427    -2.9060869149256e-10    3.78823917463546e-09    2.74134827446108e-09
68                      18                       2                       0                       0                       0                       0
69                      20                       0                5.656854   -4.06399203394389e-10    5.14571228781522e-11    1.29491758382797e-09
70                      20                       0                2.828427   -3.16651603737123e-11    8.29217498777158e-12    4.08045649464722e-10
71                      20                       0                       0                       0                       0                       0
72                      22                       2                5.656854   -2.39183504642803e-08    9.29437280477299e-08    4.25071689074256e-08
73                      22                       2                2.828427    -3.9129016672657e-10    1.51653299915969e-09    1.08659335102745e-09
74                      22                       2                       0                       0                       0                       0
75                      24                       0                5.656854   -1.41489713656655e-10    6.85708818409007e-12    2.03258322798831e-10
76                      24                       0                2.828427                       0                       0                       0
77                      24                       0                       0                       0                       0                       0
78                      26                       2                5.656854   -5.35421943378054e-09    1.09462814267476e-08    4.92784351070299e-09
79                      26                       2                2.828427   -7.47495812345177e-11    1.62733830927222e-10    1.15006508416765e-10
80                      26                       2                       0                       0                       0                       0
81                      28                       0                5.656854                       0                       0                       0
82                      28                       0                2.828427                       0                       0                       0
83                      28                       0                       0                       0                       0                       0
84                      30                       2                5.656854                       0                       0                       0
85                      30                       2                2.828427                       0                       0                       0
86                      30                       2                       0                       0                       0                       0
87                       0                       4                5.656854                       0                       0                       0
88                       0                       4                2.828427                       0                       0                       0
89                       0                       4                       0                       0                       0                       0
90                       2                       6                5.656854    3.18953770886327e-08    2.89348537305273e-08    1.86875006562183e-08
91                       2                       6                2.828427    5.34258827818173e-10    4.85767592973783e-10    4.91603751192169e-10
92                       2                       6                       0                       0                       0                       0
93                       4                       4                5.656854     3.6350107401486e-09    4.99244825912604e-09    2.63049234496251e-09
94                       4                       4                2.828427    1.47871125636611e-09    2.05515360522004e-09    1.73151516313221e-09
95                       4                       4                       0                       0                       0                       0
96                       6                       6                5.656854    8.45132512080985e-07    1.23815054119331e-06    8.14338642864356e-07
97                       6                       6                2.828427    1.19917462886448e-08     1.7375168706991e-08    1.75511103330637e-08
98                       6                       6                       0    1.83824720272364e-09    2.89885422614287e-09    4.01739863077793e-09
99                       8                       4                5.656854    3.67359181666309e-08     8.5752900829458e-08    4.63196082869453e-08
100                       8                       4                2.828427    1.89047762488631e-08    4.41814511309406e-08    3.68397389754349e-08
101                       8                       4                       0    6.30258246461505e-11    1.76435616607089e-10    2.06252986168478e-10
102                      10                       6                5.656854    4.45218972293741e-06    1.31071282194844e-05    9.02242324387666e-06
103                      10                       6                2.828427    4.85514290833356e-08     1.3969014786012e-07    1.45923731860455e-07
104                      10                       6                       0    8.78017403171613e-09    2.58836582088401e-08    3.66159904018943e-08
105                      12                       4                5.656854    6.75419584653208e-08    3.95899856699188e-07    2.20299858101356e-07
106                      12                       4                2.828427    3.15678868864694e-08    1.80378918270422e-07    1.53593248800462e-07
107                      12                       4                       0    1.69513752006329e-10    1.05005242487841e-09    1.24316942804357e-09
108                      14                       6                5.656854    2.46371343589105e-06    3.38208829420775e-05     2.4020626256233e-05
109                      14                       6                2.828427    2.66759000190241e-08    3.21613076728426e-07     3.4508723255998e-07
110                      14                       6                       0     4.4890230617243e-09    5.67842199947555e-08    8.18469614342523e-08
111                      16                       4                5.656854   -6.09760642005527e-10    5.83696466561933e-07    3.28035622005012e-07
112                      16                       4                2.828427   -2.74110073207972e-10    2.60951137195012e-07    2.24051825324111e-07
113                      16                       4                       0   -1.73285638264466e-12    1.61652692025189e-09    1.92304418148861e-09
114                      18                       6                5.656854   -2.52889093920824e-06    3.36420158859817e-05    2.38838543215177e-05
115                      18                       6                2.828427   -2.73047920356684e-08    3.20186617062035e-07    3.43432170837285e-07
116                      18                       6                       0   -4.60898136288509e-09    5.65789282091362e-08    8.15203507253072e-08
117                      20                       4                5.656854   -6.76441578186122e-08    3.91586187826864e-07    2.17788450528922e-07
118                      20                       4                2.828427   -3.16516870794395e-08    1.78676955358469e-07    1.52070726124955e-07
119                      20                       4                       0   -1.70421644383142e-10     1.0417895001273e-09     1.2327171573861e-09
120                      22                       6                5.656854   -4.40772475024717e-06    1.28861948833423e-05      8.862382637862e-06
121                      22                       6                2.828427   -4.81984943022443e-08    1.37717538368471e-07    1.43744475997813e-07
122                      22                       6                       0   -8.74022066679677e-09    2.55816289847723e-08    3.61578474143588e-08
123                      24                       4                5.656854   -3.61312644546572e-08    8.39362902903105e-08      4.530433765155e-08
124                      24                       4                2.828427   -1.86412430175004e-08    4.33584298701403e-08    3.61265602825007e-08
125                      24                       4                       0   -6.23844377046832e-11    1.73668446228463e-10    2.02820613205986e-10
126                      26                       6                5.656854   -8.25282865800318e-07    1.20508540634643e-06    7.91750873963758e-07
127                      26                       6                2.828427   -1.17521946627657e-08     1.6973541242585e-08    1.71280070256861e-08
128                      26                       6                       0   -1.80863496017394e-09    2.84259086819111e-09    3.93471524894147e-09
129                      28                       4                5.656854   -3.53841813366142e-09    4.84784283617428e-09    2.55205750841305e-09
130                      28                       4                2.828427   -1.44384368962424e-09    2.00203618267698e-09    1.68505605806004e-09
131                      28                       4                       0                       0                       0                       0
132                      30                       6                5.656854   -3.09044740561797e-08     2.7993125886569e-08    1.80585488155206e-08
133                      30                       6                2.828427   -5.19436401030969e-10    4.71630968126928e-10    4.76707080989125e-10
134                      30                       6                       0                       0                       0                       0
135                       0                       8                5.656854    1.12791390673838e-10    3.83534231732809e-09    3.20977434838863e-09
136                       0                       8                2.828427    4.02224622200507e-11    1.48673319916288e-09    2.06065884960341e-09
137                       0                       8                       0                       0                       0                       0
138                       2                      10                5.656854    8.50301565799953e-07    4.36250934753198e-07    5.08419934385015e-07
139                       2                      10                2.828427    1.26913124121035e-08    6.55673212294424e-09    1.15142558563722e-08
140                       2                      10                       0     2.5145312825421e-09    1.30922134517188e-09    3.18588831899374e-09
141                       4                       8                5.656854    2.51831578730556e-07     2.2319768432824e-07    1.88241603794716e-07
142                       4                       8                2.828427    1.09951947067296e-07    9.71206212162506e-08    1.24745808622562e-07
143                       4                       8                       0     6.1783188584719e-10     5.6666162194177e-10     9.9413886049419e-10
144                       6                      10                5.656854    4.32151968669612e-05    3.67145046922608e-05    4.49833057565425e-05
145                       6                      10                2.828427    3.34073134245631e-07     2.8124875395761e-07    5.14171617019139e-07
146                       6                      10                       0    5.22831941785529e-08    4.40010932957335e-08    1.06257952213031e-07
147                       8                       8                5.656854    3.97329921981929e-06    6.51933154773606e-06    5.74600825208512e-06
148                       8                       8                2.828427    1.10278849616237e-06     1.7481846659829e-06    2.32921547920126e-06
149                       8                       8                       0    5.81131729105181e-09    9.03734490783865e-09    1.60398319096692e-08
150                      10                      10                5.656854    0.000292465144449214    0.000568831949600882     0.00075396916450192
151                      10                      10                2.828427    1.43705729047429e-06    2.62977629398533e-06    5.11227208645186e-06
152                      10                      10                       0    1.70600690346502e-07    2.98499821861813e-07    7.51456026686876e-07
153                      12                       8                5.656854    8.23487214415951e-06    3.67938120791738e-05    3.47629167605323e-05
154                      12                       8                2.828427    1.77435230791161e-06    7.45758665405601e-06    1.04699851399556e-05
155                      12                       8                       0    7.97009014068063e-09    3.19465230220652e-08    5.90073149783938e-08
156                      14                      10                5.656854     0.00011221661235992     0.00140796180477704      0.0020388719268793
157                      14                      10                2.828427    6.12049070022258e-07    5.64376454971443e-06    1.16927301713392e-05
158                      14                      10                       0    7.86195171909195e-08    5.92554684590787e-07     1.5605708564037e-06
159                      16                       8                5.656854   -6.02796107927349e-08    5.25578191645833e-05     5.0808976245812e-05
160                      16                       8                2.828427   -1.25738611855683e-08    1.03599164269944e-05     1.4846149657178e-05
161                      16                       8                       0    -5.5522436135826e-11    4.35337091021955e-08    8.18478852759904e-08
162                      18                      10                5.656854   -0.000116162953377067     0.00140303562613475     0.00202984237819519
163                      18                      10                2.828427   -6.27588448430982e-07    5.62725674248935e-06    1.16496473402929e-05
164                      18                      10                       0   -8.02744993525833e-08    5.91034506405754e-07     1.5555859219601e-06
165                      20                       8                5.656854   -8.25126508771551e-06    3.64015204619974e-05    3.43564234328005e-05
166                      20                       8                2.828427   -1.78022119243351e-06    7.39429562925332e-06    1.03717840534678e-05
167                      20                       8                       0   -8.00507918277671e-09    3.17247636485222e-08    5.85493635145208e-08
168                      22                      10                5.656854   -0.000289889571232342    0.000560028147893033    0.000740815934261436
169                      22                      10                2.828427   -1.42884129088024e-06    2.59791968096471e-06    5.04211507993289e-06
170                      22                      10                       0   -1.69963916067696e-07    2.95536250591527e-07    7.42962450463212e-07
171                      24                       8                5.656854   -3.90115288168696e-06     6.3714580134667e-06    5.60775129155686e-06
172                      24                       8                2.828427   -1.08707462700826e-06    1.71571731603234e-06    2.28310543020279e-06
173                      24                       8                       0   -5.65628423707888e-09    8.78891493910156e-09     1.5626056171417e-08
174                      26                      10                5.656854   -4.21241517095049e-05    3.56954412776728e-05    4.36467103643312e-05
175                      26                      10                2.828427   -3.27395960771341e-07    2.74909107660229e-07    5.01721843338634e-07
176                      26                      10                       0   -5.14501558368407e-08    4.31850409822853e-08    1.04121594149124e-07
177                      28                       8                5.656854   -2.44482073695082e-07    2.16254611341585e-07    1.82125743831396e-07
178                      28                       8                2.828427   -1.07214066813484e-07    9.45113734266379e-08    1.21235930820623e-07
179                      28                       8                       0   -6.05090806828588e-10    5.53893775505918e-10    9.70293966787023e-10
180                      30                      10                5.656854   -8.22191803447644e-07    4.21724468003434e-07    4.90644135697011e-07
181                      30                      10                2.828427   -1.20368074991995e-08    6.18449405565821e-09    1.09389916023379e-08
182                      30                      10                       0   -2.45435323514474e-09    1.27707864512894e-09    3.10121295111565e-09
183                       0                      12                5.656854    1.21182247907613e-09    1.86371688496861e-08    3.34945066391117e-08
184                       0                      12                2.828427    5.81759047958404e-10     1.0445511909891e-08    2.81703621030798e-08
185                       0                      12                       0                       0                       0                       0
186                       2                      14                5.656854     4.4211065327699e-06    6.62639691716629e-07    2.64500153274265e-06
187                       2                      14                2.828427    5.53313179443664e-08    8.73860927610741e-09    5.06663062308438e-08
188                       2                      14                       0    1.06778243464288e-08    1.83842064199978e-09    1.34390439600112e-08
189                       4                      12                5.656854      4.195393496067e-06    1.64355862872105e-06     3.2049697513585e-06
190                       4                      12                2.828427    1.22204460049342e-06    4.96355605224129e-07    1.41056455048812e-06
191                       4                      12                       0    6.60787486200207e-09    2.77201656335183e-09    1.02254785899087e-08
192                       6                      14                5.656854    0.000349542754392654    7.98236330977312e-05    0.000372348603059375
193                       6                      14                2.828427    1.83446526605188e-06    4.60121228645633e-07    2.89313040436918e-06
194                       6                      14                       0    2.24292453317645e-07    5.89037962042349e-08    4.60407125037722e-07
195                       8                      12                5.656854    0.000113074534353647    8.80120185811022e-05    0.000187495158763097
196                       8                      12                2.828427    1.52761299691616e-05    1.17166666019862e-05    3.54696782929145e-05
197                       8                      12                       0    5.19746495856132e-08    3.93491506839117e-08    1.51485496303492e-07
198                      10                      14                5.656854     0.00243409590427939     0.00148332278209706     0.00790929814240625
199                      10                      14                2.828427    7.58641060191074e-06    4.51425621845134e-06    3.13348335004782e-05
200                      10                      14                       0    6.78815239256941e-07    3.90982404168693e-07    3.27908574333192e-06
201                      12                      12                5.656854    0.000184740097090319    0.000473733325804643     0.00117167543516071