ITEM: TIMESTEP
0
ITEM: NUMBER OF ATOMS
422
ITEM: BOX BOUNDS ff ff ff
0.0000000000000000e+00 2.3200000000000000e+02
0.0000000000000000e+00 2.3200000000000000e+02
0.0000000000000000e+00 2.3200000000000000e+02
ITEM: ATOMS id xu yu zu fx fy fz
1        113.149701798847        115.987290420685        108.660623605008       0.870139969591523        0.69007479996887     0.00244235903901188
2        118.833128536727        115.994869938291        108.662497696656         1.7172361253566        1.67660553578063     -0.0137437857410358
3        117.443928238111        116.029378356959        108.698437244194       -2.62570281347013       -2.09795233521577     -0.0266257567552163
4         114.57283462772        115.986714531707        108.658616588771       -2.01072773672095      -0.761798907837445      0.0243232863576214
5         116.69623263097        114.744882313364          108.6520114632       0.983934339158667       -1.31118147556814      0.0580299684177426
6         115.22520409295        114.698669710795        108.607231102083        1.68381422505983        1.63102785971414      -0.111604155074573
7        115.224408588268        117.175088928628         108.60892072324        0.19469927046465      -0.728661944478807      0.0208395404442611
8         116.66645752718        117.192321932341        108.624721485758        2.56893735814377        1.01910426208599      0.0539562098737661
9        114.555580254096        113.586269574513        108.694677333338       -1.33797627405444      -0.783656582537851       0.132010956675107
10        117.454123588826         113.54497150998        108.650424106094       0.333904504677873      -0.386695783102314     0.00196090679299155
11        114.464063447285        118.372545548405        108.608053896512      -0.146003971255764       0.962711505717551    -0.00690349826777155
12        117.483094133935        118.451734837458        108.684288023279       -0.23149942754404      -0.426466308216474      0.0106241215193016
13        113.161428789368         113.59656211703        108.690971529132       0.318962004263727       0.563355723922156      0.0192832262141679
14        113.077987495405        118.360093449565        108.612392687291       0.638440614021399      -0.543445748521354     -0.0440634215258384
15         118.85555677181        113.572780839214        108.661442545642      -0.246662275728196       -0.42046523728753    -0.00791985837140747
16        118.801558556251        118.365755255335        108.612306784755        2.19201158356869        2.53921377161146      -0.140278059592259
17        112.459560795145        117.227084900646        108.689618957006       -1.07809597456738         -1.085149200529      0.0393400589918582
18        112.472049063631        114.814099819955        108.699674004892      -0.286626425187992       -1.54016475033439     -0.0435563715850942
19        119.578644351742        114.810450267322         108.68887715505       -1.42103090501134       -1.89659306885772      0.0437657625377063
20        119.570339505819         117.22761877375        108.683005530791       -2.73458267513096       -2.60091400854308        0.11901970398394
21        120.935594185972         114.80489424917        108.637313163348         1.1742477882023        2.25347758443997     -0.0491852051288926
22        120.947304351161        117.152801218486         108.65136698891      0.0990510576852043        1.39976375507486     -0.0771601836739044
23        111.007755738656        114.801588894987        108.643984065495        1.87631168188197        2.63620409475098    -0.00338088830223021
24        111.028421957932         117.15845191706        108.666993944787        1.30468070623943       0.440967105123097     -0.0814713781595063
25        121.580391334724        115.985661952102        108.650518873985       0.180317502543099     -0.0373083627059953     -0.0112867903531766
26        110.426408091225        116.020467495418        108.696571516753       -3.18972952151409      -0.438432000450958       0.102890059162378
27        121.592297457337         118.16902355244        108.639955411513     -0.0761073922192771       0.048287475158925      -0.001571439525696
28          121.6160851005        113.800604383495          108.6593368138       -1.29484165180431      -0.876605598615057      0.0345928539255134
29        110.385397700177        118.200208436746        108.682436949449      -0.270241390416622      -0.166780096005528    -0.00178185012778536
30        110.323804748109        113.746408674578        108.616437757849       0.223969700335202      -0.146042458206222      0.0332826763637968
31        112.608088968147        112.623676945997        108.665076145904      -0.111018474496644       0.063138329967124    0.000177556030178918
32         112.55421661114         119.31159643175        108.617967110541      -0.288302682033688      -0.158786496207789      0.0145797984857305
33        119.351912244688        112.593862446367        108.628452711736       0.497728134238122        0.25208307724035     0.00852755424536118
34        119.362481936183         119.34622398943        108.645785729041      0.0106839870671445    -0.00457350609121529      -0.045064694882419
35        114.957881828117        112.564555819129         108.65244925525        1.08595733929658       0.429709305607107     -0.0510930531118699
36        114.935252609586        119.381549647045        108.636681500904       0.490904224011774      -0.229186467100716    -0.00204926070731373
37        117.009086566017        112.562119551735        108.647948641995      -0.571422682451661       0.258748144880098    -0.00277585291141754
38        117.057990562522        119.450646595576        108.703714104991       -0.52535984220006      -0.223611994629936     0.00186890473697345
39                     100                     100              105.656854                       0                       0                       0
40                     100                     100              102.828427                       0                       0                       0
41                     100                     100                     100                       0                       0                       0
42                     102                     102              105.656854                       0                       0                       0
43                     102                     102              102.828427                       0                       0                       0
44                     102                     102                     100                       0                       0                       0
45                     104                     100              105.656854                       0                       0                       0
46                     104                     100              102.828427                       0                       0                       0
47                     104                     100                     100                       0                       0                       0
48                     106                     102              105.656854                       0                       0                       0
49                     106                     102              102.828427                       0                       0                       0
50                     106                     102                     100                       0                       0                       0
51                     108                     100              105.656854                       0                       0                       0
52                     108                     100              102.828427                       0                       0                       0
53                     108                     100                     100                       0                       0                       0
54                     110                     102              105.656854                       0                       0                       0
55                     110                     102              102.828427                       0                       0                       0
56                     110                     102                     100                       0                       0                       0
57                     112                     100              105.656854                       0                       0                       0
58                     112                     100              102.828427                       0                       0                       0
59                     112                     100                     100                       0                       0                       0
60                     114                     102              105.656854                       0                       0                       0
61                     114                     102              102.828427                       0                       0                       0
62                     114                     102                     100                       0                       0                       0
63                     116                     100              105.656854                       0                       0                       0
64                     116                     100              102.828427                       0                       0                       0
65                     116                     100                     100                       0                       0                       0
66                     118                     102              105.656854                       0                       0                       0
67                     118                     102              102.828427                       0                       0                       0
68                     118                     102                     100                       0                       0                       0
69                     120                     100              105.656854                       0                       0                       0
70                     120                     100              102.828427                       0                       0                       0
71                     120                     100                     100                       0                       0                       0
72                     122                     102              105.656854                       0                       0                       0
73                     122                     102              102.828427                       0                       0                       0
74                     122                     102                     100                       0                       0                       0
75                     124                     100              105.656854                       0                       0                       0
76                     124                     100              102.828427                       0                       0                       0
77                     124                     100                     100                       0                       0                       0
78                     126                     102              105.656854                       0                       0                       0
79                     126                     102              102.828427                       0                       0                       0
80                     126                     102                     100                       0                       0                       0
81                     128                     100              105.656854                       0                       0                       0
82                     128                     100              102.828427                       0                       0                       0
83                     128                     100                     100                       0                       0                       0
84                     130                     102              105.656854                       0                       0                       0
85                     130                     102              102.828427                       0                       0                       0
86                     130                     102                     100                       0                       0                       0
87                     100                     104              105.656854                       0                       0                       0
88                     100                     104              102.828427                       0                       0                       0
89                     100                     104                     100                       0                       0                       0
90                     102                     106              105.656854                       0                       0                       0
91                     102                     106              102.828427                       0                       0                       0
92                     102                     106                     100                       0                       0                       0
93                     104                     104              105.656854                       0                       0                       0
94                     104                     104              102.828427                       0                       0                       0
95                     104                     104                     100                       0                       0                       0
96                     106                     106              105.656854                       0                       0                       0
97                     106                     106              102.828427                       0                       0                       0
98                     106                     106                     100                       0                       0                       0
99                     108                     104              105.656854                       0                       0                       0
100                     108                     104              102.828427                       0                       0                       0
101                     108                     104                     100                       0                       0                       0
102                     110                     106              105.656854                       0                       0                       0
103                     110                     106              102.828427                       0                       0                       0
104                     110                     106                     100                       0                       0                       0
105                     112                     104              105.656854                       0                       0                       0
106                     112                     104              102.828427                       0                       0                       0
107                     112                     104                     100                       0                       0                       0
108                     114                     106              105.656854                       0                       0                       0
109                     114                     106              102.828427                       0                       0                       0
110                     114                     106                     100                       0                       0                       0
111                     116                     104              105.656854                       0                       0                       0
112                     116                     104              102.828427                       0                       0                       0
113                     116                     104                     100                       0                       0                       0
114                     118                     106              105.656854                       0                       0                       0
115                     118                     106              102.828427                       0                       0                       0
116                     118                     106                     100                       0                       0                       0
117                     120                     104              105.656854                       0                       0                       0
118                     120                     104              102.828427                       0                       0                       0
119                     120                     104                     100                       0                       0                       0
120                     122                     106              105.656854                       0                       0                       0
121                     122                     106              102.828427                       0                       0                       0
122                     122                     106                     100                       0                       0                       0
123                     124                     104              105.656854                       0                       0                       0
124                     124                     104              102.828427                       0                       0                       0
125                     124                     104                     100                       0                       0                       0
126                     126                     106              105.656854                       0                       0                       0
127                     126                     106              102.828427                       0                       0                       0
128                     126                     106                     100                       0                       0                       0
129                     128                     104              105.656854                       0                       0                       0
130                     128                     104              102.828427                       0                       0                       0
131                     128                     104                     100                       0                       0                       0
132                     130                     106              105.656854                       0                       0                       0
133                     130                     106              102.828427                       0                       0                       0
134                     130                     106                     100                       0                       0                       0
135                     100                     108              105.656854                       0                       0                       0
136                     100                     108              102.828427                       0                       0                       0
137                     100                     108                     100                       0                       0                       0
138                     102                     110              105.656854                       0                       0                       0
139                     102                     110              102.828427                       0                       0                       0
140                     102                     110                     100                       0                       0                       0
141                     104                     108              105.656854                       0                       0                       0
142                     104                     108              102.828427                       0                       0                       0
143                     104                     108                     100                       0                       0                       0
144                     106                     110              105.656854                       0                       0                       0
145                     106                     110              102.828427                       0                       0                       0
146                     106                     110                     100                       0                       0                       0
147                     108                     108              105.656854                       0                       0                       0
148                     108                     108              102.828427                       0                       0                       0
149                     108                     108                     100                       0                       0                       0
150                     110                     110              105.656854                       0                       0                       0
151                     110                     110              102.828427                       0                       0                       0
152                     110                     110                     100                       0                       0                       0
153                     112                     108              105.656854                       0                       0                       0
154                     112                     108              102.828427                       0                       0                       0
155                     112                     108                     100                       0                       0                       0
156                     114                     110              105.656854                       0                       0                       0
157                     114                     110              102.828427                       0                       0                       0
158                     114                     110                     100                       0                       0                       0
159                     116                     108              105.656854                       0                       0                       0
160                     116                     108              102.828427                       0                       0                       0
161                     116                     108                     100                       0                       0                       0
162                     118                     110              105.656854                       0                       0                       0
163                     118                     110              102.828427                       0                       0                       0
164                     118                     110                     100                       0                       0                       0
165                     120                     108              105.656854                       0                       0                       0
166                     120                     108              102.828427                       0                       0                       0
167                     120                     108                     100                       0                       0                       0
168                     122                     110              105.656854                       0                       0                       0
169                     122                     110              102.828427                       0                       0                       0
170                     122                     110                     100                       0                       0                       0
171                     124                     108              105.656854                       0                       0                       0
172                     124                     108              102.828427                       0                       0                       0
173                     124                     108                     100                       0                       0                       0
174                     126                     110              105.656854                       0                       0                       0
175                     126                     110              102.828427                       0                       0                       0
176                     126                     110                     100                       0                       0                       0
177                     128                     108              105.656854                       0                       0                       0
178                     128                     108              102.828427                       0                       0                       0
179                     128                     108                     100                       0                       0                       0
180                     130                     110              105.656854                       0                       0                       0
181                     130                     110              102.828427                       0                       0                       0
182                     130                     110                     100                       0                       0                       0
183                     100                     112              105.656854                       0                       0                       0
184                     100                     112              102.828427                       0                       0                       0
185                     100                     112                     100                       0                       0                       0
186                     102                     114              105.656854                       0                       0                       0
187                     102                     114              102.828427                       0                       0                       0
188                     102                     114                     100                       0                       0                       0
189                     104                     112              105.656854                       0                       0                       0
190                     104                     112              102.828427                       0                       0                       0
191                     104                     112                     100                       0                       0                       0
192                     106                     114              105.656854                       0                       0                       0
193                     106                     114              102.828427                       0                       0                       0
194                     106                     114                     100                       0                       0                       0
195                     108                     112              105.656854                       0                       0                       0
196                     108                     112              102.828427                       0                       0                       0
197                     108                     112                     100                       0                       0                       0
198                     110                     114              105.656854                       0                       0                       0
199                     110                     114              102.828427                       0                       0                       0
200                     110                     114                     100                       0                       0                       0
201                     112                     112              105.656854                       0                       0                       0