ITEM: TIMESTEP
0
ITEM: NUMBER OF ATOMS
422
ITEM: BOX BOUNDS ff ff ff
0.0000000000000000e+00 2.3200000000000000e+02
0.0000000000000000e+00 2.3200000000000000e+02
0.0000000000000000e+00 2.3200000000000000e+02
ITEM: ATOMS id xu yu zu fx fy fz
1        113.147227890013        115.984816511852        108.658149696174       -0.04856489839312       0.926636914156101     -0.0185726301807821
2        118.795410816261        115.957152217824        108.624779976189        2.54637432661582        2.60068555477671        0.53790352579937
3         117.36211411646        115.947564235308        108.616623122544        2.96389557337895        3.49756521318128       0.703270056154033
4        114.542522439127        115.956402343114        108.628304400178         4.2677823634609         4.2591382188377       0.903586635998396
5        116.691140852637        114.739790535032        108.646919684868       -1.26261727019645       -0.71237112149225       -0.13558235224082
6        115.250779271755        114.724244889599        108.632806280887      0.0471434508290501       -1.18598603057409      -0.204009320626895
7         115.31646074547        117.267141085831        108.700972880443       -4.13275223691672       -4.77804174348475      -0.947397647017164
8        116.734172439881        117.260036845042        108.692436398459       -4.15366082327492       -4.87276251866984      -0.747185594035041
9        114.470213632548        113.500902952966        108.609310711791         4.2665268325781        2.84207082749992       0.480292497051567
10        117.470445548706        113.561293469861        108.666746065975       -3.26428451925175       -2.70150442317384      -0.486410590090659
11        114.497810465277        118.406292566397        108.641800914504        2.64589840308183        3.61113008870814       0.668856761505672
12        117.421682741612        118.390323445136        108.622876630957        3.65162183741004        3.87355197777275       0.501698402247467
13        113.166755586556        113.601888914218        108.696298326321       -5.16374026232321       -4.18388317094256      -0.586140222662631
14        113.114189077795        118.396295031956        108.648594269682       0.620307802591604       0.528235758827243     0.00709588962503307
15        118.806310266673        113.523534334077        108.612196040505        6.03081003179934        5.93619727345409        1.24572188731477
16        118.823238883338        118.387435582423        108.633987111842     -0.0281960002393124       0.446731191643542      -0.121601816710002
17        112.434725307756        117.202249413257        108.664783469617       0.164645175061769      0.0417992443901735       0.114588982890002
18        112.464990290147        114.807041046471        108.692615231407       -2.45510012833859       -1.97637269064576      -0.267746263608414
19        119.591570451214        114.823376366794        108.701803254522        -5.5552731245088        -5.9421295273608       -1.14206535206216
20        119.529691297217        117.186970565148        108.642357322188      0.0745136853104355       0.257485328852224       0.119440758377778
21        120.988166044994        114.857466108192         108.68988502237       -3.59740350751899       -4.97546090289678      -0.599431982728626
22        120.968098837275          117.1735957046        108.672161475024       -4.38681510144194       -4.98115368860485      -0.524883654859396
23         111.02125614987        114.815089306201        108.657484476709       0.634381412515096         0.2925928237332       0.263673623809412
24        111.046737699697        117.176767658825        108.685309686552       -3.36351009752618       -3.83092524295292      -0.640862520163596
25        121.580405555919        115.985676173297         108.65053309518        3.92793869228389        2.69469642467679       0.317799244759768
26        110.384142493394        115.978201897587        108.654305918922        1.75165977880627        1.80010441583731       0.268528193857471
27         121.58112862879        118.157854723893        108.628786582966        2.46657587477929        3.31340946748494      0.0487721908512037
28        121.563698313306          113.7482175963        108.606950026606        1.07198731580827        3.22771785576617        0.37933008596725
29         110.35608608687        118.170896823439        108.653125336143        0.76028573739589        1.23508511399129       0.184750684537244
30        110.356250791157        113.778854717627        108.648883800897       0.903600048941647       0.495906663385543     -0.0208854771981472
31        112.576559257305        112.592147235155        108.633546435062        1.23082987566536        2.36282863751971       0.377239116103237
32        112.605376479617        119.362756300227        108.669126979018      -0.124538721294448      -0.319129390989119     -0.0593980026796276
33         119.39766263308        112.639612834759        108.674203100128      -0.568679484334861       -1.08377886897098      -0.219134519289408
34        119.368611473952        119.352353527199         108.65191526681      -0.440147721415807       -0.58548963370337     -0.0470296834820254
35        114.927398876677        112.534072867689         108.62196630381      -0.208457296418839      -0.348051398651192      -0.137580482211988
36        114.987994103935        119.434291141394        108.689422995253       -1.36328584403949       -1.58214119589852      -0.214792994545061
37        117.006027405946        112.559060391664        108.644889481925       0.313557677485452       0.825708333738835       0.159481879044195
38        117.029305572198        119.421961605251        108.675029114667      -0.223308858365573       -1.01009577922204      -0.161319309501421
39                     100                     100              105.656854                       0                       0                       0
40                     100                     100              102.828427                       0                       0                       0
41                     100                     100                     100                       0                       0                       0
42                     102                     102              105.656854                       0                       0                       0
43                     102                     102              102.828427                       0                       0                       0
44                     102                     102                     100                       0                       0                       0
45                     104                     100              105.656854                       0                       0                       0
46                     104                     100              102.828427                       0                       0                       0
47                     104                     100                     100                       0                       0                       0
48                     106                     102              105.656854                       0                       0                       0
49                     106                     102              102.828427                       0                       0                       0
50                     106                     102                     100                       0                       0                       0
51                     108                     100              105.656854                       0                       0                       0
52                     108                     100              102.828427                       0                       0                       0
53                     108                     100                     100                       0                       0                       0
54                     110                     102              105.656854                       0                       0                       0
55                     110                     102              102.828427                       0                       0                       0
56                     110                     102                     100                       0                       0                       0
57                     112                     100              105.656854                       0                       0                       0
58                     112                     100              102.828427                       0                       0                       0
59                     112                     100                     100                       0                       0                       0
60                     114                     102              105.656854                       0                       0                       0
61                     114                     102              102.828427                       0                       0                       0
62                     114                     102                     100                       0                       0                       0
63                     116                     100              105.656854                       0                       0                       0
64                     116                     100              102.828427                       0                       0                       0
65                     116                     100                     100                       0                       0                       0
66                     118                     102              105.656854                       0                       0                       0
67                     118                     102              102.828427                       0                       0                       0
68                     118                     102                     100                       0                       0                       0
69                     120                     100              105.656854                       0                       0                       0
70                     120                     100              102.828427                       0                       0                       0
71                     120                     100                     100                       0                       0                       0
72                     122                     102              105.656854                       0                       0                       0
73                     122                     102              102.828427                       0                       0                       0
74                     122                     102                     100                       0                       0                       0
75                     124                     100              105.656854                       0                       0                       0
76                     124                     100              102.828427                       0                       0                       0
77                     124                     100                     100                       0                       0                       0
78                     126                     102              105.656854                       0                       0                       0
79                     126                     102              102.828427                       0                       0                       0
80                     126                     102                     100                       0                       0                       0
81                     128                     100              105.656854                       0                       0                       0
82                     128                     100              102.828427                       0                       0                       0
83                     128                     100                     100                       0                       0                       0
84                     130                     102              105.656854                       0                       0                       0
85                     130                     102              102.828427                       0                       0                       0
86                     130                     102                     100                       0                       0                       0
87                     100                     104              105.656854                       0                       0                       0
88                     100                     104              102.828427                       0                       0                       0
89                     100                     104                     100                       0                       0                       0
90                     102                     106              105.656854                       0                       0                       0
91                     102                     106              102.828427                       0                       0                       0
92                     102                     106                     100                       0                       0                       0
93                     104                     104              105.656854                       0                       0                       0
94                     104                     104              102.828427                       0                       0                       0
95                     104                     104                     100                       0                       0                       0
96                     106                     106              105.656854                       0                       0                       0
97                     106                     106              102.828427                       0                       0                       0
98                     106                     106                     100                       0                       0                       0
99                     108                     104              105.656854                       0                       0                       0
100                     108                     104              102.828427                       0                       0                       0
101                     108                     104                     100                       0                       0                       0
102                     110                     106              105.656854                       0                       0                       0
103                     110                     106              102.828427                       0                       0                       0
104                     110                     106                     100                       0                       0                       0
105                     112                     104              105.656854                       0                       0                       0
106                     112                     104              102.828427                       0                       0                       0
107                     112                     104                     100                       0                       0                       0
108                     114                     106              105.656854                       0                       0                       0
109                     114                     106              102.828427                       0                       0                       0
110                     114                     106                     100                       0                       0                       0
111                     116                     104              105.656854                       0                       0                       0
112                     116                     104              102.828427                       0                       0                       0
113                     116                     104                     100                       0                       0                       0
114                     118                     106              105.656854                       0                       0                       0
115                     118                     106              102.828427                       0                       0                       0
116                     118                     106                     100                       0                       0                       0
117                     120                     104              105.656854                       0                       0                       0
118                     120                     104              102.828427                       0                       0                       0
119                     120                     104                     100                       0                       0                       0
120                     122                     106              105.656854                       0                       0                       0
121                     122                     106              102.828427                       0                       0                       0
122                     122                     106                     100                       0                       0                       0
123                     124                     104              105.656854                       0                       0                       0
124                     124                     104              102.828427                       0                       0                       0
125                     124                     104                     100                       0                       0                       0
126                     126                     106              105.656854                       0                       0                       0
127                     126                     106              102.828427                       0                       0                       0
128                     126                     106                     100                       0                       0                       0
129                     128                     104              105.656854                       0                       0                       0
130                     128                     104              102.828427                       0                       0                       0
131                     128                     104                     100                       0                       0                       0
132                     130                     106              105.656854                       0                       0                       0
133                     130                     106              102.828427                       0                       0                       0
134                     130                     106                     100                       0                       0                       0
135                     100                     108              105.656854                       0                       0                       0
136                     100                     108              102.828427                       0                       0                       0
137                     100                     108                     100                       0                       0                       0
138                     102                     110              105.656854                       0                       0                       0
139                     102                     110              102.828427                       0                       0                       0
140                     102                     110                     100                       0                       0                       0
141                     104                     108              105.656854                       0                       0                       0
142                     104                     108              102.828427                       0                       0                       0
143                     104                     108                     100                       0                       0                       0
144                     106                     110              105.656854                       0                       0                       0
145                     106                     110              102.828427                       0                       0                       0
146                     106                     110                     100                       0                       0                       0
147                     108                     108              105.656854                       0                       0                       0
148                     108                     108              102.828427                       0                       0                       0
149                     108                     108                     100                       0                       0                       0
150                     110                     110              105.656854                       0                       0                       0
151                     110                     110              102.828427                       0                       0                       0
152                     110                     110                     100                       0                       0                       0
153                     112                     108              105.656854                       0                       0                       0
154                     112                     108              102.828427                       0                       0                       0
155                     112                     108                     100                       0                       0                       0
156                     114                     110              105.656854                       0                       0                       0
157                     114                     110              102.828427                       0                       0                       0
158                     114                     110                     100                       0                       0                       0
159                     116                     108              105.656854                       0                       0                       0
160                     116                     108              102.828427                       0                       0                       0
161                     116                     108                     100                       0                       0                       0
162                     118                     110              105.656854                       0                       0                       0
163                     118                     110              102.828427                       0                       0                       0
164                     118                     110                     100                       0                       0                       0
165                     120                     108              105.656854                       0                       0                       0
166                     120                     108              102.828427                       0                       0                       0
167                     120                     108                     100                       0                       0                       0
168                     122                     110              105.656854                       0                       0                       0
169                     122                     110              102.828427                       0                       0                       0
170                     122                     110                     100                       0                       0                       0
171                     124                     108              105.656854                       0                       0                       0
172                     124                     108              102.828427                       0                       0                       0
173                     124                     108                     100                       0                       0                       0
174                     126                     110              105.656854                       0                       0                       0
175                     126                     110              102.828427                       0                       0                       0
176                     126                     110                     100                       0                       0                       0
177                     128                     108              105.656854                       0                       0                       0
178                     128                     108              102.828427                       0                       0                       0
179                     128                     108                     100                       0                       0                       0
180                     130                     110              105.656854                       0                       0                       0
181                     130                     110              102.828427                       0                       0                       0
182                     130                     110                     100                       0                       0                       0
183                     100                     112              105.656854                       0                       0                       0
184                     100                     112              102.828427                       0                       0                       0
185                     100                     112                     100                       0                       0                       0
186                     102                     114              105.656854                       0                       0                       0
187                     102                     114              102.828427                       0                       0                       0
188                     102                     114                     100                       0                       0                       0
189                     104                     112              105.656854                       0                       0                       0
190                     104                     112              102.828427                       0                       0                       0
191                     104                     112                     100                       0                       0                       0
192                     106                     114              105.656854                       0                       0                       0
193                     106                     114              102.828427                       0                       0                       0
194                     106                     114                     100                       0                       0                       0
195                     108                     112              105.656854                       0                       0                       0
196                     108                     112              102.828427                       0                       0                       0
197                     108                     112                     100                       0                       0                       0
198                     110                     114              105.656854                       0                       0                       0
199                     110                     114              102.828427                       0                       0                       0
200                     110                     114                     100                       0                       0                       0
201                     112                     112              105.656854                       0                       0                       0