ITEM: TIMESTEP
0
ITEM: NUMBER OF ATOMS
422
ITEM: BOX BOUNDS ff ff ff
0.0000000000000000e+00 2.3200000000000000e+02
0.0000000000000000e+00 2.3200000000000000e+02
0.0000000000000000e+00 2.3200000000000000e+02
ITEM: ATOMS id xu yu zu fx fy fz
1        113.145932193839        117.283520815677              108.656854     -0.0283948214639367     -0.0276682204753975      0.0857693437884685
2        118.827484840071        117.289226241634              108.656854      0.0257041683138341     -0.0282490255511906      0.0894788763239693
3        117.402344993917        117.287795112765              108.656854     -0.0221337373724746     -0.0270742237680897       0.109066220354649
4        114.571072038949        117.284951942936              108.656854      0.0272510081527323     -0.0276685986490521       0.111505740545244
5        116.701075167769        116.049724850164              108.656854     0.00176652082385564      0.0042550997241142     0.00416228218329039
6        115.274826990867        116.048292608712              108.656854     0.00600954886370968     0.00427066123146641      0.0046065369868108
7        115.272341865028        118.523022205388              108.656854      0.0304751961214103      0.0132038732976202      0.0511559319230747
8        116.698590041422        118.524454446583              108.656854     -0.0221313674892972      0.0126023335477555      0.0481297221933244
9        114.517756920757        114.848446241175              108.656854      0.0221860639070771      0.0355045688128285       0.108564722832572
10        117.460553482731        114.851401403886              108.656854     -0.0411928911520419      0.0350713992351579       0.107366377080066
11        114.512863550773        119.721345651893              108.656854     0.00695478797870522     0.00276748180754356      0.0202773656929005
12        117.455660110655        119.724300814179              108.656854     -0.0248688580179824     0.00279570791924348      0.0202329381151101
13        113.127311260236        114.862444587898              108.656854     -0.0182087459513329       0.023726077038042      0.0718325082622713
14        113.122448808114        119.704554762274              108.656854    0.000465740106226437     0.00383293183173659     0.00898392383748541
15        118.850968226168        114.868192293572              108.656854      0.0020586062228159      0.0244293078255519      0.0752163807089327
16        118.846105771496         119.71030247058              108.656854     -0.0157682361973416     0.00462892114667349      0.0115351205540214
17        112.426795838139         118.49431994364              108.656854     -0.0125868983336378      0.0127814971728951      0.0284307775996567
18         112.42922905874        116.071279815063              108.656854     0.00347531550928643     0.00148290660173253     0.00408790466062075
19        119.546621196692        116.078427112272              108.656854     0.00648189730355668     0.00120761603896216     0.00283517236594993
20        119.544187975028         118.50146724296              108.656854      0.0232099926802075      0.0127346792627538      0.0287393167412602
21        120.955135022624        116.124435085822              108.656854       0.151193517070052       0.146483898714513      0.0312188851304774
22        120.952791362251        118.458288229576              108.656854       0.118598590934144     -0.0532441963314872      0.0323496422986985
23        111.020625673161        116.114458829493              108.656854     -0.0336754339325649       0.149176970748948      0.0532856428366667
24        111.018282013145        118.448311972274              108.656854    -0.00265464399602144     -0.0455640676463284      0.0568996386371001
25        121.586726460739        117.291997078118              108.656854     -0.0636636819473451     -0.0611574566280746      0.0844791458653519
26        110.386690574472        117.280749978664              108.656854    -0.00249810495875114     -0.0647293988469288       0.070416302484385
27        121.609196045824        119.485922140926              108.656854      -0.162566374134768     -0.0200180224078193      0.0444748467271506
28          121.6136022867        115.098121569695              108.656854      -0.172416061390394     0.00818036701929312      0.0781994651257533
29        110.359814750727        119.474625487296              108.656854      0.0177756537040877     -0.0309674207286854      0.0153159315364121
30         110.36422099026         115.08682491673              108.656854      0.0224687504718494     0.00637689633438251      0.0478219623847178
31        112.599866822243        113.915454800093              108.656854     -0.0183901970406199      0.0156187377717737    -0.00783171050348924
32        112.593103500599        120.650483321209              108.656854      -0.015892601478352      0.0427430809637917     0.00504628043300891
33        119.380313532952        113.922263734631              108.656854      0.0610018863561778      0.0155929515422894     -0.0136810607308458
34        119.373550207142        120.657292260389              108.656854      0.0555650749634035      0.0401291786926956   -0.000935584613408676
35        114.962286572867         113.86896056388              108.656854      0.0084598954675657     0.00937227228356313    -0.00725818446768002
36        114.955425108682        120.701722146141              108.656854     0.00458074811343478      0.0278219802993215    -0.00628505555080173
37        117.017991924022        113.871024909739              108.656854      0.0183653896512687     0.00937384954948622    -0.00838434269129226
38        117.011130457531        120.703786490585              108.656854      0.0204844089496024      0.0273919781523365    -0.00695233303249216
39                     100                     100              105.656854       0.212128373493071       0.213700928352754       -0.97575585138487
40                     100                     100              102.828427        0.43202659473586       0.430638392286126   -0.000265426965119291
41                     100                     100                     100       0.212154930549414       0.213303065044628       0.976207322039451
42                     102                     102              105.656854      -0.344430471962742      -0.347048882967675      -0.277810129932724
43                     102                     102              102.828427     -0.0509019189765522     -0.0486813340009335    0.000461356492808778
44                     102                     102                     100      -0.344524836990787      -0.346263893804821       0.277052164929799
45                     104                     100              105.656854      0.0959596528608542       0.959703441869753       -0.80902978381848
46                     104                     100              102.828427       -0.06392386960145       0.726954347067451   -0.000152408554565443
47                     104                     100                     100       0.096287019939195       0.959296915728596       0.809265576695798
48                     106                     102              105.656854      -0.149575967294339      -0.514226774698641      -0.381272298601668
49                     106                     102              102.828427       0.142595273130866      0.0661184748302086    0.000157752166014406
50                     106                     102                     100      -0.150398307630571      -0.513553548793384       0.381061226157031
51                     108                     100              105.656854       0.110140325489917        1.05992681737625      -0.801917222400372
52                     108                     100              102.828427      -0.111991176286533       0.639970568446896    0.000253448936464292
53                     108                     100                     100       0.110898457344581        1.05998932502081        0.80145123054294
54                     110                     102              105.656854      -0.144421015479291       -0.58194291875899      -0.373950200354076
55                     110                     102              102.828427       0.148786701691784       0.134857755935955   -0.000791812966759973
56                     110                     102                     100      -0.146022355734085      -0.582644056930205       0.375320258220529
57                     112                     100              105.656854       0.132372869295968        1.10901357395433      -0.810463201444868
58                     112                     100              102.828427      -0.135958774666938        0.58906356761206    0.000872998846670556
59                     112                     100                     100       0.133140746510586        1.11006908128782       0.808960768480612
60                     114                     102              105.656854       -0.16463855147224      -0.620436651703769      -0.362016022171214
61                     114                     102              102.828427       0.169276894256269       0.175752599372243    -0.00186726874653954
62                     114                     102                     100      -0.165561283112019      -0.623105991922152       0.365136558125515
63                     116                     100              105.656854       0.166587722336741        1.14500676909913      -0.820876135132751
64                     116                     100              102.828427      -0.170771255876555       0.551570731468176     0.00119732702076781
65                     116                     100                     100       0.166587064106378        1.14664171048481       0.818837953114499
66                     118                     102              105.656854      -0.208656680977749      -0.652632171205691      -0.348582471272296
67                     118                     102              102.828427       0.213810828339222       0.208996956949778    -0.00186596109871092
68                     118                     102                     100      -0.207731594175569       -0.65529775822284       0.351700907251167
69                     120                     100              105.656854       0.222506534749665        1.18309477809808      -0.835031415105779
70                     120                     100              102.828427      -0.228129416442107       0.512557488979293    0.000872577646077383
71                     120                     100                     100       0.221739387046803        1.18414863250106       0.833529663732493
72                     122                     102              105.656854      -0.287435503723936      -0.688110604283855      -0.330420784392614
73                     122                     102              102.828427       0.292649350661529       0.244420295160488   -0.000791473595463133
74                     122                     102                     100      -0.285838612843118      -0.688809739539641       0.331790236683509
75                     124                     100              105.656854       0.325739089131057        1.23656914215521      -0.852115047547101
76                     124                     100              102.828427      -0.322524297112387       0.459587018770015    0.000254422517765233
77                     124                     100                     100       0.324983343287585        1.23663268720548       0.851647485817969
78                     126                     102              105.656854      -0.461187183639727      -0.727026293428402      -0.331842350451194
79                     126                     102              102.828427        0.39681987427532       0.281294580899142    0.000154549689339981
80                     126                     102                     100      -0.460368334399644       -0.72635822838706       0.331636358514166
81                     128                     100              105.656854       0.708071274102982         1.3403507050685      -0.754829107550469
82                     128                     100              102.828427      -0.280747170160942       0.396335362163053   -0.000150074336263822
83                     128                     100                     100        0.70774487168109        1.33994745348092       0.755061051195358
84                     130                     102              105.656854       -1.34065496486049      -0.708223235159923      -0.755252474995758
85                     130                     102              102.828427      -0.395859613702578       0.280662164204292    0.000457138050233149
86                     130                     102                     100       -1.34056018097312        -0.7074441290403       0.754501401187492
87                     100                     104              105.656854       0.958757774164696      0.0995606915527417      -0.808625470148601
88                     100                     104              102.828427       0.727873699677786     -0.0669005641100629   -0.000769128097789601
89                     100                     104                     100       0.958453990774721      0.0985372460113887       0.809907003911174
90                     102                     106              105.656854      -0.513028002254631       -0.15613119039665      -0.382270362283043
91                     102                     106              102.828427       0.064846990253736       0.147619308823772     0.00153987233402585
92                     102                     106                     100      -0.512351486413707      -0.153857577344607        0.37978655080603
93                     104                     104              105.656854       0.247094645608862        0.25178467980501       -0.38891845719154
94                     104                     104              102.828427      -0.180010321236673      -0.183744297748346    -0.00083471158565857
95                     104                     104                     100          0.247433656566        0.25013368686185       0.390239344842711
96                     106                     106              105.656854      -0.233111249346774      -0.242341248937249      -0.503479023013874
97                     106                     106              102.828427       0.225535503327386        0.23214150324305     0.00152830598903976
98                     106                     106                     100      -0.234423922028036      -0.238663477005293       0.501106353240582
99                     108                     104              105.656854       0.174387706476005       0.337342709712455      -0.375589824862561
100                     108                     104              102.828427      -0.178035229188324      -0.268089628437256    5.56953804732998e-05
101                     108                     104                     100        0.17660068904574       0.336441147958243       0.375404619516128
102                     110                     106              105.656854      -0.185633077924206      -0.291396500329855      -0.489717973860934
103                     110                     106              102.828427       0.194106042801643       0.284882722407964     -0.0012716579767352
104                     110                     106                     100      -0.191767367470385      -0.291543663553479       0.491905392745453
105                     112                     104              105.656854       0.169260945326512       0.380596279950651      -0.390154310464595
106                     112                     104              102.828427       -0.17545012687996      -0.315033059787468     0.00227644119714433
107                     112                     104                     100       0.172368913757926       0.383618547370228       0.386370369443574
108                     114                     106              105.656854      -0.191331989502207      -0.312873845719028      -0.470388258682542
109                     114                     106              102.828427       0.198985755348735        0.31344009024341    -0.00593264497443142
110                     114                     106                     100      -0.195689355971976      -0.322723179519149       0.480219526656259
111                     116                     104              105.656854       0.198193929209857       0.408648990641928      -0.404750634918412
112                     116                     104              102.828427      -0.203400368517169      -0.345715431510738     0.00365506769898103
113                     116                     104                     100       0.198188137302276       0.414470149642565       0.398752902973082
114                     118                     106              105.656854      -0.237890354353934      -0.335097834252072      -0.454488904591458
115                     118                     106              102.828427       0.241838010523147       0.336346202364167    -0.00592218965655788
116                     118                     106                     100      -0.233513264857417      -0.344917801308386       0.464302349207751
117                     120                     104              105.656854       0.258154471403871       0.437260638523916      -0.420877790181302
118                     120                     104              102.828427      -0.263543539506638      -0.373537775339954     0.00227193820214407
119                     120                     104                     100       0.255049783688791       0.440270283878294       0.417101181809218
120                     122                     106              105.656854      -0.314612959096224      -0.361378750094179      -0.437944346648325
121                     122                     106              102.828427       0.317838583464504       0.357137927031898    -0.00126686094578535
122                     122                     106                     100      -0.308507870690182      -0.361513193531047       0.440123804243443
123                     124                     104              105.656854       0.366852693392617       0.462643877311734      -0.438912234678889
124                     124                     104              102.828427      -0.361634899897443      -0.397296549326589    5.85020259223951e-05
125                     124                     104                     100       0.364650872608002        0.46174739069858        0.43872272052247
126                     126                     106              105.656854      -0.466123271565832      -0.366635133021424      -0.440396120217571
127                     126                     106              102.828427        0.40080471912528       0.360375610237322     0.00151537676078251
128                     126                     106                     100      -0.464820710723854      -0.362984077521202       0.438044165532265
129                     128                     104              105.656854        0.72807569629566       0.461279279577508      -0.331062824576365
130                     128                     104              102.828427      -0.282587402165727      -0.396428447831805   -0.000827165907929557
131                     128                     104                     100        0.72773777009518       0.459640774211843       0.332371781528323
132                     130                     106              105.656854       -1.23736258121248      -0.327387578194199      -0.853108034701467
133                     130                     106              102.828427      -0.458393034676104       0.323355537080693     0.00152726543879263
134                     130                     106                     100       -1.23803247465092      -0.325132087317305       0.850644173998614
135                     100                     108              105.656854        1.06200603467824       0.116284089042136      -0.800375902217672
136                     100                     108              102.828427       0.638796245247543      -0.116724946386053    -0.00193891879603495
137                     100                     108                     100        1.06038237553895       0.114168165696762       0.803539924344303
138                     102                     110              105.656854      -0.587652936795472      -0.155311405097235      -0.377978243936176
139                     102                     110              102.828427       0.137662202714188       0.156274014240699     0.00419426556794191
140                     102                     110                     100      -0.583447741317501      -0.150575585639289       0.371259165802544
141                     104                     108              105.656854       0.336246019692466       0.187407992385309      -0.372705372625034
142                     104                     108              102.828427      -0.266343343304536       -0.18680756574778    -0.00332751186937733
143                     104                     108                     100       0.334653855527055        0.18185820420027       0.378006752140411
144                     106                     110              105.656854      -0.292241523212464       -0.21404396219202      -0.499942325961367
145                     106                     110              102.828427         0.2822613119751       0.209246562757443     0.00757535771128338
146                     106                     110                     100      -0.288653491826108      -0.199194871808398       0.486717034271668
147                     108                     108              105.656854       0.223184969829264       0.243566539346974      -0.363010760763378
148                     108                     108              102.828427       -0.23021066413518      -0.242253741268219    -0.00248587556244782
149                     108                     108                     100       0.228814595815986       0.235301101258728       0.367246035333108
150                     110                     110              105.656854      -0.196963258081932      -0.244499099605979      -0.479519469590349
151                     110                     110              102.828427       0.220594452262276       0.241211182502373     0.00134764849620404
152                     110                     110                     100      -0.223307854490584      -0.232179031905741       0.475751845141121
153                     112                     108              105.656854       0.187592847497919       0.258769161663761      -0.389712025093816
154                     112                     108              102.828427      -0.202533740453667      -0.269662327008268     0.00620100988307366
155                     112                     108                     100       0.202737307326924       0.267272291611728       0.378912931143147
156                     114                     110              105.656854      -0.192161860844433      -0.206981756651759      -0.422241572080471
157                     114                     110              102.828427       0.213050662100015       0.246926897982152     -0.0196580622465863
158                     114                     110                     100      -0.214525895289131      -0.249103682092955       0.467580078579477
159                     116                     108              105.656854       0.220228183305328       0.262912422435457      -0.413833362746745
160                     116                     108              102.828427      -0.226100383278575      -0.284747701284308      0.0128776108099613
161                     116                     108                     100       0.220183229433211        0.28652917975208       0.391263153120226
162                     118                     110              105.656854       -0.27069814173985       -0.21816345770679      -0.405053836881512
163                     118                     110              102.828427       0.262343970002797       0.258272479786947     -0.0195908535082995
164                     118                     110                     100      -0.248161572065816      -0.260073204622086       0.450210352498139
165                     120                     108              105.656854       0.287431976155755       0.292453758678014      -0.424464734087982
166                     120                     108              102.828427      -0.285664841910209      -0.304334429490537     0.00616720149151204
167                     120                     108                     100       0.272315982598361       0.300861055849178        0.41372914708193
168                     122                     110              105.656854      -0.339532995381635      -0.278068658735535      -0.423142515788584
169                     122                     110              102.828427       0.329015632913213       0.275780401968507     0.00137646793127662
170                     122                     110                     100      -0.313450868382977      -0.265669651572949       0.419323507990949
171                     124                     108              105.656854       0.373682324652582       0.313146763788611      -0.435369823420046
172                     124                     108              102.828427       -0.36674865572584      -0.314141021966578    -0.00247108269469908
173                     124                     108                     100       0.368109968119826       0.304928146094323       0.439573486676966
174                     126                     110              105.656854      -0.443206051574407      -0.269820405420791      -0.428520382213514
175                     126                     110              102.828427       0.381379270577097       0.266945005101854     0.00751735950257089
176                     126                     110                     100      -0.446780928421219      -0.255100890879684       0.415417737889363
177                     128                     108              105.656854       0.690273455063638       0.291492820063166      -0.327995389503296
178                     128                     108              102.828427      -0.247430411189234      -0.294316701789432    -0.00330013612330579
179                     128                     108                     100       0.691852391458552       0.285990111832053       0.333252243917397
180                     130                     110              105.656854       -1.18183205062765      -0.227643483412731      -0.837957246080488
181                     130                     110              102.828427      -0.511769080547774       0.231013789282987     0.00415978681791946
182                     130                     110                     100       -1.18599869221292       -0.22294755089571       0.831293528556466
183                     100                     112              105.656854        1.11711952644631       0.138740592085031      -0.806910796506735
184                     100                     112              102.828427       0.584067074465162      -0.140560028264838     -0.0038545866147221
185                     100                     112                     100         1.1124952151486       0.136079050468152       0.813127085457053
186                     102                     114              105.656854      -0.637457109134003      -0.172558114399982       -0.37067664555988
187                     102                     114              102.828427       0.184432843600715       0.174288259872503      0.0079341504824509
188                     102                     114                     100      -0.626437705701614      -0.168330186835794       0.357848792733997
189                     104                     112              105.656854       0.396469133085953       0.188632259973722      -0.377926955309858
190                     104                     112              102.828427      -0.320815455711633      -0.186406525612315    -0.00954822521548284
191                     104                     112                     100       0.384677117461184       0.177951285542233       0.394047226179449
192                     106                     114              105.656854      -0.352219863468397      -0.218367359656613      -0.511843121651393
193                     106                     114              102.828427       0.321393763686542       0.210681534986302      0.0205744483730536
194                     106                     114                     100      -0.322639741184895       -0.20053691162237       0.467420933339695
195                     108                     112              105.656854       0.266151272620149       0.253012010798291      -0.343010989210478
196                     108                     112              102.828427      -0.263226993141335      -0.224322479086406     -0.0154267896405386
197                     108                     112                     100       0.262124103613237       0.211227738405933       0.387901819220397
198                     110                     114              105.656854      -0.154918281239699       -0.26552035055493      -0.618744030711576
199                     110                     114              102.828427       0.227532774884444        0.22896746475833      0.0149899807020577
200                     110                     114                     100      -0.240527583091605      -0.220206323753834       0.456684772043107
201                     112                     112              105.656854       0.139405288897427       0.220767160543556      -0.428544068816865