ITEM: TIMESTEP
0
ITEM: NUMBER OF ATOMS
422
ITEM: BOX BOUNDS ff ff ff
0.0000000000000000e+00 2.3200000000000000e+02
0.0000000000000000e+00 2.3200000000000000e+02
0.0000000000000000e+00 2.3200000000000000e+02
ITEM: ATOMS id xu yu zu fx fy fz
1        113.149701798847        115.987290420685        108.660623605008    -0.00408865840515654   -0.000979428354937344      0.0066925075600608
2        118.833128536727        115.994869938291        108.662497696656     0.00118822552502084    -0.00112337753765753     0.00718152539070818
3        117.443928238111        116.029378356959        108.698437244194   -3.33236787524267e-05     0.00189746073892339     0.00928069027370418
4         114.57283462772        115.986714531707        108.658616588771     0.00649479672196355     0.00346333606905024      0.0137638949598739
5         116.69623263097        114.744882313364          108.6520114632     -0.0177362329540528      0.0165199058290292      0.0403593270345837
6         115.22520409295        114.698669710795        108.607231102083      0.0327661971046861      0.0205631656215873      0.0604859474634992
7        115.224408588268        117.175088928628         108.60892072324      0.0290527697342834     -0.0130999702535676      0.0522532504023497
8         116.66645752718        117.192321932341        108.624721485758     -0.0176673119874706    -0.00949524400458052      0.0403768449069161
9        114.555580254096        113.586269574513        108.694677333338      0.0282245077128434     -0.0312547431999422       0.135591611292948
10        117.454123588826         113.54497150998        108.650424106094     -0.0506768598766202     -0.0375164323795245       0.158184202533561
11        114.464063447285        118.372545548405        108.608053896512      0.0347819691724415      0.0193353566143753       0.205761344233691
12        117.483094133935        118.451734837458        108.684288023279     -0.0455331669372609      0.0161175493675188       0.144693107570244
13        113.161428789368         113.59656211703        108.690971529132     -0.0257107939053799     -0.0266644879775095       0.102718219897548
14        113.077987495405        118.360093449565        108.612392687291     -0.0365254020747593      0.0128260496939307       0.128770469764404
15         118.85555677181        113.572780839214        108.661442545642       0.012580164326585     -0.0299518270109237       0.112700225954285
16        118.801558556251        118.365755255335        108.612306784755      0.0216636434390871      0.0161088340237321       0.150778302025552
17        112.459560795145        117.227084900646        108.689618957006    -0.00829208668070883     0.00217175405460165       0.019093151901977
18        112.472049063631        114.814099819955        108.699674004892    -0.00740281278380318     0.00716004419310974      0.0177899230480633
19        119.578644351742        114.810450267322         108.68887715505       0.016612575805009     0.00642501802267613      0.0156987296949037
20        119.570339505819         117.22761877375        108.683005530791      0.0176512392557255     0.00223502289098546      0.0173043370553866
21        120.935594185972         114.80489424917        108.637313163348       0.130270198911755       0.123896218128698      0.0396163750677006
22        120.947304351161        117.152801218486         108.65136698891       0.130323441832264     -0.0233312992266812      0.0315305802892576
23        111.007755738656        114.801588894987        108.643984065495     -0.0112974872565267       0.126318270823035      0.0635645708097437
24        111.028421957932         117.15845191706        108.666993944787     -0.0142013482881676     -0.0178831010756644      0.0507294216274824
25        121.580391334724        115.985661952102        108.650518873985     -0.0576401193006784     -0.0256825109148927     0.00344633741471053
26        110.426408091225        116.020467495418        108.696571516753    -0.00870631724293701     -0.0293254926510028     -0.0130498902507192
27        121.592297457337         118.16902355244        108.639955411513      -0.177910568555842     -0.0449348130663691       0.191315124717125
28          121.6160851005        113.800604383495          108.6593368138      -0.177938953888558     -0.0787442184119544       0.172976886882954
29        110.385397700177        118.200208436746        108.682436949449       0.028695380920924     -0.0523884621591514        0.14075303594897
30        110.323804748109        113.746408674578        108.616437757849      0.0288803169299116     -0.0870805144901195       0.162545462880079
31        112.608088968147        112.623676945997        108.665076145904     -0.0156221905329884      0.0247258980528028      0.0115649564584775
32         112.55421661114         119.31159643175        108.617967110541     -0.0182256942566585      0.0147292612881048     0.00855906113801679
33        119.351912244688        112.593862446367        108.628452711736       0.056242396582678      0.0266664835097731     0.00784113098683604
34        119.362481936183         119.34622398943        108.645785729041       0.056546256180476      0.0130686726771354    0.000151580488970322
35        114.957881828117        112.564555819129         108.65244925525     0.00478745558472624      0.0144983708475073   -0.000728999284084798
36        114.935252609586        119.381549647045        108.636681500904     0.00484143725841302      0.0128670725750574    -0.00476986958726923
37        117.009086566017        112.562119551735        108.647948641995      0.0219362768986049      0.0150609697024685    -0.00104674361131695
38        117.057990562522        119.450646595576        108.703714104991      0.0197107383541509      0.0138406445422519    -0.00584940924315039
39                     100                     100              105.656854       0.212170263368833       0.214015417926728      -0.975676452432594
40                     100                     100              102.828427       0.432014576915042       0.430398771635327   -0.000385124954445233
41                     100                     100                     100       0.212138791959959       0.213460403254661       0.976326532197198
42                     102                     102              105.656854      -0.344499382697357      -0.347658446398141      -0.277987046241673
43                     102                     102              102.828427     -0.0509013950263464     -0.0482572332142471    0.000707323999474301
44                     102                     102                     100      -0.344473354666408      -0.346509471719729       0.276834882931212
45                     104                     100              105.656854       0.095738658277037       0.960146115357531      -0.808931484718786
46                     104                     100              102.828427     -0.0637186949282325       0.726641860695045   -0.000289223915692394
47                     104                     100                     100      0.0961116211854995       0.959480397869678       0.809384845823197
48                     106                     102              105.656854      -0.149006375184416      -0.515042871165955      -0.381474302515711
49                     106                     102              102.828427       0.142116908554328      0.0666243323622165    0.000404870371989498
50                     106                     102                     100      -0.150039645472938      -0.513802450575692       0.380884092839246
51                     108                     100              105.656854       0.109426494128692        1.06010149154309      -0.801905177470131
52                     108                     100              102.828427      -0.111431780432215       0.639868792318808    0.000247681299401878
53                     108                     100                     100       0.110508168413523        1.06002857266606        0.80143666852554
54                     110                     102              105.656854      -0.142892278659308       -0.58181881283449      -0.373827648322872
55                     110                     102              102.828427       0.147714032190084       0.134749894179654   -0.000963671600729566
56                     110                     102                     100      -0.145369948132376      -0.582558077244758        0.37549287531376
57                     112                     100              105.656854         0.1315468264803        1.10828867444309      -0.810688972939883
58                     112                     100              102.828427      -0.135351056253653       0.589564695561288     0.00118550499670162
59                     112                     100                     100       0.132751918135116        1.10977091646185       0.808673780684251
60                     114                     102              105.656854      -0.163650599370229      -0.618464395659417      -0.361325419440086
61                     114                     102              102.828427       0.168615845985863       0.174573901892426    -0.00270162070679323
62                     114                     102                     100      -0.165186624620439      -0.622520215218597       0.365787174152741
63                     116                     100              105.656854       0.166572065036356        1.14368160918231      -0.821250780175004
64                     116                     100              102.828427      -0.170757213217204       0.552460810767387     0.00170675395221406
65                     116                     100                     100       0.166578012664841         1.1461375551463       0.818389938073684
66                     118                     102              105.656854      -0.209589247696945      -0.650619680362412      -0.347893495106823
67                     118                     102              102.828427       0.214426266994582       0.207789100586248    -0.00271359661606055
68                     118                     102                     100      -0.208079935011113      -0.654698410507599       0.352365669329816
69                     120                     100              105.656854       0.223314403609887        1.18233297606146      -0.835253912881971
70                     120                     100              102.828427      -0.228721152358571       0.513088148878982     0.00119504862825784
71                     120                     100                     100       0.222118387038546        1.18383420136197       0.833229600005894
72                     122                     102              105.656854      -0.288955840317179      -0.687896693741928      -0.330299599557997
73                     122                     102              102.828427       0.293715806164588       0.244249768754924   -0.000993144540487607
74                     122                     102                     100      -0.286488601218113      -0.688695588133776       0.331994150569668
75                     124                     100              105.656854       0.326463287944175        1.23670026267394      -0.852098560342053
76                     124                     100              102.828427      -0.323092538580451       0.459519555753919    0.000260733085637486
77                     124                     100                     100       0.325380401920302        1.23665356500391        0.85161654132485
78                     126                     102              105.656854      -0.461796132121759      -0.727781157756687      -0.332047420021419
79                     126                     102              102.828427       0.397329595384974       0.281758036762905    0.000379201831322237
80                     126                     102                     100      -0.460747195471089      -0.726589534572382       0.331484719399808
81                     128                     100              105.656854       0.708316501456231        1.34077296942461      -0.754725496231833
82                     128                     100              102.828427      -0.280973492497059       0.396039116251983   -0.000280731419046453
83                     128                     100                     100       0.707935701805798        1.34012330343229       0.755170182806982
84                     130                     102              105.656854       -1.34062281672219      -0.708821740393039      -0.755435624563414
85                     130                     102              102.828427      -0.395829045531535       0.281079260154151    0.000696429745161202
86                     130                     102                     100       -1.34063298102544      -0.707690255639653       0.754294400221948
87                     100                     104              105.656854       0.959140800683841       0.100100891875118      -0.808409153682619
88                     100                     104              102.828427       0.727643074920992     -0.0672720571251595    -0.00107107987336092
89                     100                     104                     100       0.958548280963817      0.0987484991389719       0.810177231119529
90                     102                     106              105.656854       -0.51390930370036      -0.157235262247723      -0.382838207440554
91                     102                     106              102.828427      0.0652822841576141       0.148265142008243     0.00222902652207605
92                     102                     106                     100      -0.512472701072692      -0.154155134330783       0.379270237600041
93                     104                     104              105.656854       0.247190580466478       0.253080893233209      -0.388469526274757
94                     104                     104              102.828427      -0.179941566632517      -0.184521734254684    -0.00137749923513823
95                     104                     104                     100       0.247282025577327       0.250505997575407       0.390638482249821
96                     106                     106              105.656854      -0.233087449425513       -0.24542796160802       -0.50482045888393
97                     106                     106              102.828427       0.225147670430396       0.233567527101151     0.00279216573069817
98                     106                     106                     100        -0.2340019001199      -0.239170886755679        0.50041013144704
99                     108                     104              105.656854       0.172747993241992       0.338810086059759       -0.37519039896903
100                     108                     104              102.828427      -0.176865016731724      -0.268825081218629    -0.00033225175784297
101                     108                     104                     100       0.175874811599506        0.33671611898874       0.375597405648097
102                     110                     106              105.656854      -0.180526308254625      -0.293224225804888      -0.490077065769993
103                     110                     106              102.828427       0.191316183006726       0.285548486160577     -0.0010752537764421
104                     110                     106                     100      -0.190431107749574      -0.291691884028185       0.491968568566137
105                     112                     104              105.656854        0.16623079010748       0.378954518586042      -0.390997203161833
106                     112                     104              102.828427      -0.173624044941418      -0.314180248115644      0.0031671559418482
107                     112                     104                     100       0.171435404865753        0.38323789457585       0.385736073829447
108                     114                     106              105.656854      -0.187129809731373      -0.306243183286318      -0.466484656190069
109                     114                     106              102.828427       0.196871773515804       0.311038188822976    -0.00893676778122858
110                     114                     106                     100      -0.194795950890035      -0.321964247783311       0.481820723282595
111                     116                     104              105.656854       0.198133735109736       0.404350297823771      -0.406584052235883
112                     116                     104              102.828427      -0.203354923642632      -0.343583383388178     0.00552200313263114
113                     116                     104                     100         0.1981650501766       0.413610434746841       0.397541309129302
114                     118                     106              105.656854      -0.241862333666322      -0.328299952661793      -0.450560429717169
115                     118                     106              102.828427       0.243810670849262        0.33387139543157    -0.00900023237115137
116                     118                     106                     100      -0.234349785365086      -0.344143767889444       0.465950009980137
117                     120                     104              105.656854       0.261107738849383       0.435467364118346      -0.421728963478182
118                     120                     104              102.828427      -0.265316360606121      -0.372595556321855     0.00322103320335579
119                     120                     104                     100       0.255958192740377       0.439858906676069       0.416419022252132
120                     122                     106              105.656854      -0.319692682027622      -0.362789695684113      -0.438214190683591
121                     122                     106              102.828427       0.320616690344377       0.357633383661764    -0.00124390278040992
122                     122                     106                     100      -0.309842975250651      -0.361630326005817       0.440290071090501
123                     124                     104              105.656854       0.368540649739598       0.463942666035849      -0.438527309844304
124                     124                     104              102.828427      -0.362838974616792      -0.397936593654702   -0.000261686306753486
125                     124                     104                     100       0.365395624607171       0.461992255241954       0.438859102398796
126                     126                     106              105.656854      -0.466332821134089      -0.369525844144788      -0.441691964318463
127                     126                     106              102.828427        0.40130108037342       0.361722827499406     0.00267260593017324
128                     126                     106                     100       -0.46529140670206      -0.363487367340444       0.437419647492471
129                     128                     104              105.656854       0.728060569385296       0.462523990347445      -0.330612944490658
130                     128                     104              102.828427      -0.282715809834655      -0.397177643540439    -0.00134051297462523
131                     128                     104                     100       0.727923831237775       0.460009688529072       0.332741793137535
132                     130                     106              105.656854       -1.23657789290735      -0.328493315109721       -0.85368017872038
133                     130                     106              102.828427      -0.458759916370646        0.32401391123394     0.00219418747113771
134                     130                     106                     100       -1.23794795952256      -0.325451560484575       0.850148254949236
135                     100                     108              105.656854        1.06313521263289       0.116713491926126       -0.79990886221747
136                     100                     108              102.828427       0.638143634959981      -0.116957497073884    -0.00252621047143756
137                     100                     108                     100        1.06066129832287       0.114255018224975       0.804002115192156
138                     102                     110              105.656854      -0.590234965063495      -0.155710483571055      -0.379232216825491
139                     102                     110              102.828427       0.138828968021044        0.15635414201276     0.00547553963708994
140                     102                     110                     100      -0.583804032469341      -0.150524441189124       0.370460319488748
141                     104                     108              105.656854       0.338555203617961       0.189877755837301      -0.370899701089408
142                     104                     108              102.828427      -0.267130794820712      -0.187870797573264    -0.00502162033782505
143                     104                     108                     100        0.33473326775514       0.182199676916684       0.378968293827688
144                     106                     110              105.656854       -0.29898136292056      -0.219613531285192      -0.507253509982911
145                     106                     110              102.828427       0.283277762481886       0.210452136436047      0.0117603652805062
146                     106                     110                     100      -0.288427888619389      -0.199352845262503          0.485176165535
147                     108                     108              105.656854       0.221528226782473       0.251820569237995      -0.358174639164631
148                     108                     108              102.828427      -0.228495419937201      -0.244529026848176    -0.00528897444633397
149                     108                     108                     100       0.227765594336143       0.235812004725996       0.368221170959441
150                     110                     110              105.656854      -0.177921550177619      -0.259213943728758      -0.492590858754105
151                     110                     110              102.828427       0.215010964706046       0.243138543933571     0.00534759268120255
152                     110                     110                     100      -0.221336406075403      -0.232409858711631       0.475207841616961
153                     112                     108              105.656854       0.173977390272254       0.256239598218291      -0.393594446214085
154                     112                     108              102.828427      -0.197271646901403      -0.269069349969842     0.00835930210550589
155                     112                     108                     100       0.200856101078997       0.267131397609439       0.377849828427041
156                     114                     110              105.656854      -0.176246662207582      -0.183220869521803      -0.383693914117967
157                     114                     110              102.828427       0.208234465799367       0.245914383060573     -0.0276094502189662
158                     114                     110                     100      -0.213083556702708      -0.249103714648934       0.470289826335825
159                     116                     108              105.656854       0.220008721561922       0.248788139058446      -0.426315294418548
160                     116                     108              102.828427      -0.225986827464218      -0.281257673861742      0.0197425952531625
161                     116                     108                     100       0.220148157577906       0.285815913077575       0.388525339904851
162                     118                     110              105.656854      -0.285435799808978      -0.193970410709036      -0.365796575083809
163                     118                     110              102.828427       0.266889165441759       0.257327725485435     -0.0277816955150867
164                     118                     110                     100      -0.249564556025192      -0.260132986941754       0.452992228633822
165                     120                     108              105.656854       0.300622062908921       0.289212528804753      -0.428642545466924
166                     120                     108              102.828427      -0.290761829613859      -0.303579565723667     0.00864396971588977
167                     120                     108                     100       0.274156657129452        0.30072752539989       0.412536699863765
168                     122                     110              105.656854      -0.358550882229781         -0.290628256169      -0.434130097619061
169                     122                     110              102.828427       0.334583289517973        0.27767917527814     0.00459450299915767
170                     122                     110                     100      -0.315436147746164      -0.266022362844668       0.418963280014929
171                     124                     108              105.656854         0.3757215432221       0.320653842849734      -0.430894228391836
172                     124                     108              102.828427       -0.36860965693521      -0.316261146483463    -0.00493123727491368
173                     124                     108                     100       0.369206471025849        0.30546138817034       0.440404381670027
174                     126                     110              105.656854      -0.437417607597209      -0.275207197156753      -0.435389292775913
175                     126                     110              102.828427       0.380645970915131       0.268270503832037      0.0113841744572288
176                     126                     110                     100      -0.447075942870573       -0.25538234318028       0.413974165458345
177                     128                     108              105.656854       0.688245619719063       0.293922513527103      -0.326233321094959
178                     128                     108              102.828427         -0.246791028638      -0.295403884075562    -0.00490244332930313
179                     128                     108                     100       0.691831165398365       0.286379350618971       0.334161437155641
180                     130                     110              105.656854       -1.17939734724225      -0.228187612665488      -0.839219114975169
181                     130                     110              102.828427      -0.512858319160631       0.231212086159028      0.0054203015975876
182                     130                     110                     100       -1.18566852007309      -0.222979956096725       0.830500140442852
183                     100                     112              105.656854        1.11856559562961       0.138072095644162      -0.806361195354121
184                     100                     112              102.828427       0.583289546376285      -0.140064923304525    -0.00448426741696108
185                     100                     112                     100        1.11280498813448        0.13576386049156       0.813572447278059
186                     102                     114              105.656854       -0.63929308658403      -0.170229746347677      -0.371568351659249
187                     102                     114              102.828427       0.185201686134193       0.172905528462217     0.00876467916132453
188                     102                     114                     100      -0.626649858104335      -0.167637114921287       0.357383083181902
189                     104                     112              105.656854       0.402256600213608       0.187286192471235      -0.374320663741688
190                     104                     112              102.828427      -0.322463857137748      -0.185517934594815      -0.012094806929435
191                     104                     112                     100       0.384939960631014       0.177498081341097        0.39519205172788
192                     106                     114              105.656854      -0.356947178243109       -0.20701484477314      -0.517840002896994
193                     106                     114              102.828427       0.322026533301317       0.207334030867485      0.0235421820952432
194                     106                     114                     100      -0.322489726230516      -0.199528255037454       0.466482679686607
195                     108                     112              105.656854        0.28528647855672       0.257849948131855      -0.303538945722542
196                     108                     112              102.828427      -0.262143475426249      -0.223043340491268     -0.0225188371127686
197                     108                     112                     100       0.261167202514717       0.210859134183878       0.389423162538488
198                     110                     114              105.656854      -0.152425599285466      -0.185313118768831       -0.76178682581972
199                     110                     114              102.828427       0.223037241902647       0.225071214835861      0.0160060939954504
200                     110                     114                     100      -0.239266992856065      -0.219918394809471       0.456623425293924
201                     112                     112              105.656854      0.0908703327260088       0.228025897066619      -0.429883983156037