ITEM: TIMESTEP
0
ITEM: NUMBER OF ATOMS
422
ITEM: BOX BOUNDS ff ff ff
0.0000000000000000e+00 2.3200000000000000e+02
0.0000000000000000e+00 2.3200000000000000e+02
0.0000000000000000e+00 2.3200000000000000e+02
ITEM: ATOMS id xu yu zu fx fy fz
1        113.145932193839        115.983520815677              110.656854     0.00299192058559942    -0.00122634286890019    -0.00556769459089713
2        118.827484840071        115.989226241634              110.656854    -0.00549847685980704    -0.00119456970497758    -0.00519910407894516
3        117.402344993917        115.987795112765              110.656854     0.00283877426664225     0.00262901906847398    -0.00593782511785651
4        114.571072038949        115.984951942936              110.656854     0.00252269547730857     0.00267106248862429    -0.00555324441673143
5        116.701075167769        114.749724850164              110.656854     0.00339358467472471     0.00437470446452346    -0.00579239686641208
6        115.274826990867        114.748292608712              110.656854     0.00365959160880769     0.00438615380892138    -0.00554104661001405
7        115.272341865028        117.223022205388              110.656854     0.00363001018957298      0.0026885961307184    -0.00598259048698671
8        116.698590041422        117.224454446583              110.656854     0.00332774097697539     0.00264117744800794    -0.00622937920068801
9        114.517756920757        113.548446241175              110.656854    -0.00341135603353048    -0.00587913925287071    -0.00604602964433635
10        117.460553482731        113.551401403886              110.656854     -0.0133201989494082     -0.0059199466678935    -0.00478187903725433
11        114.512863550773        118.421345651893              110.656854    -0.00334943718897832      -0.011029404994483    -0.00390527732097741
12        117.455660110655        118.424300814179              110.656854     -0.0129131858979412     -0.0107276107490968     -0.0026833461061115
13        113.127311260236        113.562444587898              110.656854      0.0143178804179409    -0.00730370825046336    -0.00656763894572747
14        113.122448808114        118.404554762274              110.656854      0.0142294540264529    -0.00697892759543765    -0.00476930892819817
15        118.850968226168        113.568192293572              110.656854     -0.0287498179895593    -0.00739681427036254     -0.0044109615513638
16        118.846105771496         118.41030247058              110.656854     -0.0282726893157181    -0.00650956621477183    -0.00267553538238883
17        112.426795838139         117.19431994364              110.656854     0.00364394434076026     0.00752405490006911    -0.00533722434577997
18         112.42922905874        114.771279815063              110.656854     0.00360267013697529     0.00113053062936022    -0.00481162544448182
19        119.546621196692        114.778427112272              110.656854     0.00536568225055144     0.00106377652059149    -0.00648837920585957
20        119.544187975028         117.20146724296              110.656854     0.00519150808792468     0.00724266462637947    -0.00699611335813698
21        120.955135022624        114.824435085822              110.656854       0.111878923289579       0.136617788554689     -0.0228954496368725
22        120.952791362251        117.158288229576              110.656854       0.109761908411977     -0.0447736660033994     -0.0282897775920297
23        111.020625673161        114.814458829493              110.656854    -0.00664532816463692       0.137647669540147     0.00504284304459227
24        111.018282013145        117.148311972274              110.656854    -0.00546978985478066     -0.0404537524635917   -0.000686294500356828
25        121.586726460739        115.991997078118              110.656854     -0.0387923028711534     -0.0243521763417981     0.00856747940742266
26        110.386690574472        115.980749978664              110.656854     -0.0191106546665777     -0.0260095172676142    -0.00898178363450283
27        121.609196045824        118.185922140926              110.656854      -0.125767189777448     -0.0584854056585091      0.0339745560203862
28          121.6136022867        113.798121569695              110.656854      -0.131558883847172     -0.0531217166603087      0.0214850823210984
29        110.359814750727        118.174625487296              110.656854    -0.00257007448251514     -0.0665585806031088    -0.00503400443191078
30         110.36422099026         113.78682491673              110.656854     0.00021095223273183     -0.0526168159312676      -0.018561578171247
31        112.599866822243        112.615454800093              110.656854      -0.029434779940266      0.0126629730649367     0.00360449836655434
32        112.593103500599        119.350483321209              110.656854     -0.0289358109017785      0.0257484708552036     -0.0031935068030454
33        119.380313532952        112.622263734631              110.656854      0.0679861166926755      0.0132690615505688    -0.00325864352829438
34        119.373550207142        119.357292260389              110.656854      0.0660044825593433      0.0238887277216047    -0.00977344156062471
35        114.962286572867         112.56896056388              110.656854       0.012445201573772     0.00726602796950104    1.23491289991242e-05
36        114.955425108682        119.401722146141              110.656854      0.0122088914087853      0.0179112755069015    -0.00450568554301756
37        117.017991924022        112.571024909739              110.656854      0.0119295286243993     0.00736809867630181    -0.00126329262796535
38        117.011130457531        119.403786490585              110.656854       0.011197232508947      0.0175219165089213    -0.00571295609467572
39                     100                     100              105.656854       0.212149451388325       0.213840459430489      -0.975571869974269
40                     100                     100              102.828427       0.432020529637796       0.430611367334957   -0.000402185151557708
41                     100                     100                     100       0.212160782892424       0.213271805854843        0.97628226726889
42                     102                     102              105.656854      -0.344456102410657      -0.347262435809549      -0.278158143991408
43                     102                     102              102.828427     -0.0508960050314038     -0.0486865241206965    0.000681284198631535
44                     102                     102                     100       -0.34454312553512      -0.346177586348932       0.276961699541914
45                     104                     100              105.656854      0.0958436502161469       0.959912594206359      -0.808868876748569
46                     104                     100              102.828427     -0.0638776692272954       0.726891975151616   -0.000257457466749684
47                     104                     100                     100      0.0962943362398035        0.95929218309135       0.809309320610385
48                     106                     102              105.656854      -0.149322929501839      -0.514551167756109      -0.381524633066401
49                     106                     102              102.828427       0.142539013481188      0.0661822458395482    0.000281519149179624
50                     106                     102                     100       -0.15045788103922      -0.513537025461799       0.381036573614608
51                     108                     100              105.656854       0.109787304600882         1.0600538520628      -0.801996237885907
52                     108                     100              102.828427      -0.111869095837153       0.639884814806117    0.000321671041389626
53                     108                     100                     100       0.110908722442093        1.06005655037594        0.80140168041415
54                     110                     102              105.656854       -0.14379287229592      -0.582047034189258       -0.37355274007942
55                     110                     102              102.828427        0.14866679021332        0.13503953208913    -0.00104120111746985
56                     110                     102                     100      -0.146118857182304      -0.582831576858589       0.375433606787367
57                     112                     100              105.656854       0.131979245136753        1.10881292288655      -0.811007922002923
58                     112                     100              102.828427       -0.13583208242459       0.588991747534018     0.00123516657928422
59                     112                     100                     100       0.133150241539107        1.11023748433168       0.808782651144357
60                     114                     102              105.656854      -0.164250974382045       -0.62004234014493      -0.360723302190232
61                     114                     102              102.828427       0.169207826197666       0.176038721507426    -0.00256228674988635
62                     114                     102                     100      -0.165614039263594      -0.623520206058299       0.365377870697824
63                     116                     100              105.656854       0.166588558729374        1.14458872409315      -0.821687590950759
64                     116                     100              102.828427      -0.170771709187416       0.551515949818594     0.00171934079693952
65                     116                     100                     100       0.166587303616446        1.14686172059569       0.818595849876128
66                     118                     102              105.656854       -0.20904669369315       -0.65223990479835      -0.347291364941393
67                     118                     102              102.828427       0.213881091557853       0.209283551516872    -0.00256015106114154
68                     118                     102                     100      -0.207679406717068      -0.655711957261343       0.351941886769125
69                     120                     100              105.656854       0.222900368695743        1.18289570337843      -0.835575468666699
70                     120                     100              102.828427      -0.228256502449174       0.512484936653065     0.00123426311265945
71                     120                     100                     100       0.221730281319694        1.18431732446212       0.833351845309323
72                     122                     102              105.656854       -0.28806213162578      -0.688217123620864      -0.330024070598707
73                     122                     102              102.828427       0.292769405511095       0.244603363603552    -0.00104011333162918
74                     122                     102                     100      -0.285742690945896      -0.688997786934719       0.331902997447182
75                     124                     100              105.656854       0.326090951630423          1.236696859946       -0.85219465042482
76                     124                     100              102.828427      -0.322646107147215       0.459500406959166    0.000322793767487519
77                     124                     100                     100       0.324973229362323        1.23670056969119       0.851598085748234
78                     126                     102              105.656854      -0.461438628397047      -0.727350914464536      -0.332092217855203
79                     126                     102              102.828427       0.396875687711384       0.281359883601232    0.000277526605487275
80                     126                     102                     100      -0.460308927051803      -0.726342990928068       0.331611489057981
81                     128                     100              105.656854       0.708186680078533        1.34055959947734      -0.754669818699583
82                     128                     100              102.828427      -0.280793049809697       0.396272327177465   -0.000254262645902968
83                     128                     100                     100       0.707737479731658        1.33994353787069       0.755104606072918
84                     130                     102              105.656854       -1.34062919884387      -0.708436616708139      -0.755597642805153
85                     130                     102              102.828427      -0.395865895970145       0.280658201316698    0.000675679918882744
86                     130                     102                     100        -1.3405416632599      -0.707359157030382       0.754411150266373
87                     100                     104              105.656854       0.958901139085992      0.0996497129412292      -0.808138065291183
88                     100                     104              102.828427       0.727853716745642     -0.0667720733053739    -0.00106285601215562
89                     100                     104                     100        0.95844628094171      0.0983516457922003       0.810016581653244
90                     102                     106              105.656854      -0.513240780810058      -0.156085260373827      -0.383288441979595
91                     102                     106              102.828427       0.064819817022529       0.147190968792836      0.0019850145118181
92                     102                     106                     100      -0.512334240734968      -0.153449378760395       0.379725632564152
93                     104                     104              105.656854       0.247113123518967       0.252083218955478      -0.388217167801794
94                     104                     104              102.828427        -0.1800265870128      -0.183614741610309    -0.00116995317699647
95                     104                     104                     100       0.247503325626401       0.249932540628359       0.390312446704919
96                     106                     106              105.656854      -0.233084658893134      -0.242569919186725      -0.504952156287384
97                     106                     106              102.828427       0.225661021080006       0.231629109616821     0.00192692965212956
98                     106                     106                     100       -0.23469062565711      -0.238267086151465       0.501156379021807
99                     108                     104              105.656854        0.17384701640063       0.337822975762575      -0.375286195852232
100                     108                     104              102.828427      -0.178058430042968        -0.2681653361802   -1.15837309063809e-05
101                     108                     104                     100       0.176832946845527       0.336458267743169       0.375374398618434
102                     110                     106              105.656854       -0.18473057723316      -0.292167076920875       -0.48952568416715
103                     110                     106              102.828427       0.194637776960833        0.28524116893849    -0.00144195183691333
104                     110                     106                     100      -0.192456235652477      -0.291830121842807       0.491951885456135
105                     112                     104              105.656854       0.168341161844478       0.380700909408617      -0.391600169278558
106                     112                     104              102.828427      -0.175483708943163      -0.315631047335315     0.00289632659858316
107                     112                     104                     100       0.172645789404956       0.384164064969936       0.386236230399373
108                     114                     106              105.656854      -0.190628810396387      -0.313994415081206      -0.466222473750892
109                     114                     106              102.828427       0.199368511049209       0.315497764038908    -0.00686120261342071
110                     114                     106                     100      -0.196123925643368      -0.324082482531719        0.48006123029653
111                     116                     104              105.656854       0.198197093616974       0.408373668487478      -0.407424012383658
112                     116                     104              102.828427      -0.203401179005881      -0.346645616378175      0.0047001843155967
113                     116                     104                     100       0.198188249662286       0.415340168898754       0.398581006161382
114                     118                     106              105.656854      -0.238601052511774      -0.336220689082107      -0.450334565777287
115                     118                     106              102.828427       0.241456298635359       0.338400913654896    -0.00684838926189107
116                     118                     106                     100      -0.233078392712599      -0.346275064685018       0.464143983736137
117                     120                     104              105.656854        0.25907476597761       0.437370143601161      -0.422318319692413
118                     120                     104              102.828427      -0.263511306130225      -0.374136233325785     0.00288950629483871
119                     120                     104                     100       0.254773891398922       0.440815304674678       0.416967860039076
120                     122                     106              105.656854      -0.315511535771739      -0.362156039228161      -0.437757293843567
121                     122                     106              102.828427       0.317310390874493       0.357497833657391    -0.00143346606937191
122                     122                     106                     100      -0.307821881244881      -0.361798941592179       0.440168570451231
123                     124                     104              105.656854       0.367389825756446       0.463126477614121      -0.438610991163488
124                     124                     104              102.828427        -0.3616118463973      -0.397375055066999   -9.19466834763919e-06
125                     124                     104                     100       0.364419685453817       0.461765867742782       0.438693612446018
126                     126                     106              105.656854       -0.46614670253851        -0.3668694127034      -0.441858456034318
127                     126                     106              102.828427       0.400679009052317       0.359870616431687     0.00191424290767108
128                     126                     106                     100      -0.464555292231466      -0.362591087891346       0.438091663502374
129                     128                     104              105.656854       0.728056317235027       0.461578526201099      -0.330367191860023
130                     128                     104              102.828427      -0.282570432703584      -0.396302011907811    -0.00116081635245445
131                     128                     104                     100       0.727668048568466       0.459442011892771       0.332445394728869
132                     130                     106              105.656854       -1.23714938724848      -0.327344981404846      -0.854118065020539
133                     130                     106              102.828427      -0.458367629053061       0.322932383264387     0.00197063397186094
134                     130                     106                     100       -1.23804884628092      -0.324727384192911       0.850582113732518
135                     100                     108              105.656854        1.06213973009896       0.115859436070709      -0.799339098128535
136                     100                     108              102.828427       0.638993844536815      -0.116102636926627     -0.0023584448718886
137                     100                     108                     100        1.06020535218913       0.113652141109162       0.803550427098158
138                     102                     110              105.656854       -0.58722927523983      -0.153664173421604      -0.380017105517732
139                     102                     110              102.828427       0.136892509120813       0.154717954228484     0.00446932682457454
140                     102                     110                     100      -0.583080804359996       -0.14960230940341       0.371646681231789
141                     104                     108              105.656854       0.336390341367009       0.186501645684203      -0.370480920577263
142                     104                     108              102.828427      -0.266159331745243      -0.185511730069829    -0.00377098958960146
143                     104                     108                     100       0.334687807590657       0.181026671794978       0.377787457826985
144                     106                     110              105.656854      -0.291060463215883       -0.20839627943423      -0.504052147246738
145                     106                     110              102.828427       0.281903842999853       0.205737336476481     0.00673128493030222
146                     106                     110                     100      -0.289112433196567      -0.197780510068241       0.487784688340582
147                     108                     108              105.656854       0.223279443552021       0.242590582786679      -0.360173108481958
148                     108                     108              102.828427      -0.231097522841303      -0.240869412641676    -0.00249390578618557
149                     108                     108                     100       0.229741132962755       0.234748860761314       0.366903056166614
150                     110                     110              105.656854      -0.202547135847763      -0.239661315743313      -0.481990172300261
151                     110                     110              102.828427        0.22516777639785       0.239406913606232    0.000185400626238458
152                     110                     110                     100      -0.225878939344476       -0.23207890304569       0.476088416388564
153                     112                     108              105.656854       0.187799289582173       0.262151111975107      -0.392511075569577
154                     112                     108              102.828427      -0.204720935465525      -0.271888235904881     0.00625778148224047
155                     112                     108                     100       0.204230985441579       0.268483441111974       0.379364780027184
156                     114                     110              105.656854      -0.197158551326995      -0.230808386323967      -0.419993110940194
157                     114                     110              102.828427       0.216991839130366       0.254414258198369     -0.0159762743208875
158                     114                     110                     100      -0.216377374200536      -0.251979383712137       0.465125239759169
159                     116                     108              105.656854       0.220230362196082       0.270031567566096      -0.421567580998012
160                     116                     108              102.828427      -0.226096370996982      -0.290007515697336      0.0127051081566188
161                     116                     108                     100       0.220180658367898       0.289021555155806       0.392426102173428
162                     118                     110              105.656854      -0.265667497720321      -0.241882846232233      -0.402807381014345
163                     118                     110              102.828427       0.258384819161622       0.265729504722895     -0.0159229291970264
164                     118                     110                     100      -0.246301600754696      -0.262938731515305       0.447762656535786
165                     120                     108              105.656854       0.287234816634927       0.295824376299218      -0.427234087736181
166                     120                     108              102.828427      -0.283484904489944      -0.306547169318161     0.00622144374090041
167                     120                     108                     100       0.270824826410346        0.30206557720312       0.414179839276576
168                     122                     110              105.656854      -0.334034849167246      -0.273246690646289      -0.425648867895361
169                     122                     110              102.828427       0.324480201144743       0.273965255769776    0.000228047807005516
170                     122                     110                     100      -0.310892375053115      -0.265560010441376       0.419659755163211
171                     124                     108              105.656854       0.373584529655755       0.312197942288356      -0.432543384961575
172                     124                     108              102.828427      -0.365869458009582       -0.31276859698725    -0.00248808566973235
173                     124                     108                     100       0.367189326959746       0.304377374814513       0.439235745527208
174                     126                     110              105.656854      -0.444358033855232      -0.264255112879877      -0.432617038882741
175                     126                     110              102.828427       0.381735329646514       0.263463988539609     0.00669831535420397
176                     126                     110                     100      -0.446327537047524      -0.253691504169884       0.416473033094784
177                     128                     108              105.656854       0.690124075015792       0.290602662971796      -0.325787835654167
178                     128                     108              102.828427      -0.247610478770332      -0.293034198500104    -0.00374575614604155
179                     128                     108                     100       0.691818277785214       0.285164222565174       0.333037915303965
180                     130                     110              105.656854        -1.1822432857091      -0.226016322120296      -0.839981971204357
181                     130                     110              102.828427      -0.511009102973268       0.229471481977183     0.00443911934560131
182                     130                     110                     100       -1.18636267357793      -0.221980167119239        0.83167433691548
183                     100                     112              105.656854         1.1162345100521        0.13729469380936      -0.805451867192283
184                     100                     112              102.828427       0.585166167704336      -0.139324381908164    -0.00400294731557339
185                     100                     112                     100         1.1118354951665       0.135276726155986       0.812711216161254
186                     102                     114              105.656854       -0.63340997574571       -0.16934154607908       -0.37255619531939
187                     102                     114              102.828427       0.181625735435312       0.172181420790172     0.00687035162483998
188                     102                     114                     100      -0.625331938978444      -0.167238785698116       0.359278599036869
189                     104                     112              105.656854       0.392300707980137       0.182775158918366      -0.375048087971202
190                     104                     112              102.828427      -0.318549230740246      -0.182954517126664    -0.00812552312021366
191                     104                     112                     100       0.384202847707891       0.176402650225306       0.392495348223363
192                     106                     114              105.656854      -0.331908212291563      -0.204169823819603      -0.505067953876608
193                     106                     114              102.828427       0.317583459357206       0.205512623093442      0.0123494566119239
194                     106                     114                     100       -0.32301312991121      -0.198869576322563       0.471126456169949
195                     108                     112              105.656854       0.257803435876378       0.223328299985724      -0.350563467687152
196                     108                     112              102.828427      -0.265183484391086      -0.217807586130439    -0.00883781421982049
197                     108                     112                     100       0.264295820915957       0.209702022788321       0.385491755626264
198                     110                     114              105.656854      -0.199254934652905      -0.216842850362183      -0.475644120463397
199                     110                     114              102.828427       0.241956966712642       0.226118331288765     0.00282265819866754
200                     110                     114                     100       -0.24624343301072      -0.220001184552841       0.458408848034456
201                     112                     112              105.656854       0.178114050348611       0.225231983468947      -0.418694437439583