ITEM: TIMESTEP
0
ITEM: NUMBER OF ATOMS
422
ITEM: BOX BOUNDS ff ff ff
0.0000000000000000e+00 2.3200000000000000e+02
0.0000000000000000e+00 2.3200000000000000e+02
0.0000000000000000e+00 2.3200000000000000e+02
ITEM: ATOMS id xu yu zu fx fy fz
1        113.114649431328        115.952238053167         108.62557123749        1.36942065192731        1.48124770408413       0.017721012422967
2        118.778156014753        115.939897416317        108.607525174682        2.09123673281838         3.8807064211966      -0.139548862811592
3        117.441648291507        116.027098410355         108.69615729759       -2.83750220141023       -3.92935192349455        0.17351463347281
4        114.566714106307        115.980594010294        108.652496067358       0.280473350154491       -1.35867586901075      0.0651980615980757
5        116.722569832948        114.771219515342        108.678348665179        1.20924568642263      -0.173904773060784      0.0539814748453329
6        115.264878115368        114.738343733212        108.646905124501     -0.0257429447578998       0.867499254626601    -0.00435401349975657
7         115.31515199121         117.26583233157        108.699664126183        -3.3642781629014       -4.11143179579147       0.325958632484158
8        116.667053250447        117.192917655608        108.625317209025        3.10488643749924        3.47354101332942      -0.263038155442423
9        114.519311211474        113.550000531892        108.658408290716      -0.254566948420926     -0.0802112677245889      0.0101578350886159
10        117.496723248975         113.58757117013        108.693023766244      -0.260066197935136        -2.2894870900994      0.0225088027531613
11        114.463904791703        118.372386892823         108.60789524093         2.5557118538632        4.44457490347875      -0.292315230000577
12        117.498209183086         118.46684988661        108.699403072431      -0.498622435637426       0.487838533723144     -0.0574412205612642
13        113.162763664728         113.59789699239        108.692306404492       -1.44858472182307       -1.16936115165901      0.0379226142020344
14        113.145607295388        118.427713249549        108.680012487275      -0.738345377714386       -2.64541198485032        0.13261925966289
15        118.834177425424        113.551401492828        108.640063199256        1.12533405868686        1.42143559601081     0.00470476027484433
16        118.853928101616        118.418124800701         108.66467633012      -0.105779129571998       0.277813460973319     0.00404395835591473
17        112.444833141945        117.212357247446        108.674891303806       -1.14119125621225       -2.12556254059188    -0.00455904501954947
18        112.425855193781        114.767905950105        108.653480135042        1.31897478307265        2.29529387433369     -0.0622624899872127
19        119.554625809534        114.786431725114        108.664858612842       -2.50339833269302       -1.63493016017041      0.0570284211606912
20        119.529590683915        117.186869951846        108.642256708887      -0.220547094129817      -0.993880537378889     -0.0420818620715042
21        120.944477242616        114.813777305814        108.646196219992        1.09768559940988         1.1755795187358     -0.0396480161178359
22        120.909198655094        117.114695522419        108.613261292843        2.13853106341072        1.00554604755725      0.0853000250784103
23         111.05103996328        114.844873119611        108.687268290119       -1.01668424572281       -1.23281981579568     -0.0125572649909545
24        111.001039086099        117.131069045227        108.639611072953       0.967106805001195        1.43218334419367      0.0147028459067017
25        121.576472050762        115.981742668141        108.646599590023       -1.40038908937956       -0.58585603280424     -0.0565246284074721
26        110.405709041053        115.999768445246        108.675872466581        -0.1582138428258       0.515910604843401      0.0579353283820498
27        121.645567012932        118.222293108034        108.693224967108      -0.903816669440799       0.604655389636198     -0.0521843582840939
28        121.619337282282        113.803856565277        108.662588995582      -0.898912101384214      -0.600542703427951     0.00849914804111981
29        110.362615533601         118.17742627017        108.659654782873      -0.492012188933773      -0.300108948785953    -0.00454021234788988
30        110.332691442653        113.755295369122        108.625324452392       0.543342420691842      -0.359424549775163      0.0211767362961613
31        112.560980622646        112.576568600496        108.617967800403      0.0745185752087638     -0.0454372267903292      0.0210161988948987
32        112.558549199288        119.315929019897        108.622299698688       0.604394585325994        0.39698908074352     -0.0381678382998912
33         119.41229047313         112.65424067481        108.688830940178      -0.493443717128084      -0.317121810140611      0.0155223221071393
34        119.408411327735        119.392153380982        108.691715120593       0.272875156163693      -0.155106946712304    -0.00836197978647842
35        114.958934230595        112.565608221608        108.653501657728       0.564489180852653       0.252156625378905     -0.0119440484714965
36        114.959040514065        119.405337551524        108.660469405383       0.233325186711551      -0.108488567875841      -0.065893528786937
37        117.035519696856        112.588552682573        108.674381772834      -0.621828017406275        0.28664415784631       0.022877242117117
38        117.028215385152        119.420871418206        108.673938927621      -0.167627451792166     -0.0824998347513937      0.0030334417418356
39                     100                     100              105.656854                       0                       0                       0
40                     100                     100              102.828427                       0                       0                       0
41                     100                     100                     100                       0                       0                       0
42                     102                     102              105.656854                       0                       0                       0
43                     102                     102              102.828427                       0                       0                       0
44                     102                     102                     100                       0                       0                       0
45                     104                     100              105.656854                       0                       0                       0
46                     104                     100              102.828427                       0                       0                       0
47                     104                     100                     100                       0                       0                       0
48                     106                     102              105.656854                       0                       0                       0
49                     106                     102              102.828427                       0                       0                       0
50                     106                     102                     100                       0                       0                       0
51                     108                     100              105.656854                       0                       0                       0
52                     108                     100              102.828427                       0                       0                       0
53                     108                     100                     100                       0                       0                       0
54                     110                     102              105.656854                       0                       0                       0
55                     110                     102              102.828427                       0                       0                       0
56                     110                     102                     100                       0                       0                       0
57                     112                     100              105.656854                       0                       0                       0
58                     112                     100              102.828427                       0                       0                       0
59                     112                     100                     100                       0                       0                       0
60                     114                     102              105.656854                       0                       0                       0
61                     114                     102              102.828427                       0                       0                       0
62                     114                     102                     100                       0                       0                       0
63                     116                     100              105.656854                       0                       0                       0
64                     116                     100              102.828427                       0                       0                       0
65                     116                     100                     100                       0                       0                       0
66                     118                     102              105.656854                       0                       0                       0
67                     118                     102              102.828427                       0                       0                       0
68                     118                     102                     100                       0                       0                       0
69                     120                     100              105.656854                       0                       0                       0
70                     120                     100              102.828427                       0                       0                       0
71                     120                     100                     100                       0                       0                       0
72                     122                     102              105.656854                       0                       0                       0
73                     122                     102              102.828427                       0                       0                       0
74                     122                     102                     100                       0                       0                       0
75                     124                     100              105.656854                       0                       0                       0
76                     124                     100              102.828427                       0                       0                       0
77                     124                     100                     100                       0                       0                       0
78                     126                     102              105.656854                       0                       0                       0
79                     126                     102              102.828427                       0                       0                       0
80                     126                     102                     100                       0                       0                       0
81                     128                     100              105.656854                       0                       0                       0
82                     128                     100              102.828427                       0                       0                       0
83                     128                     100                     100                       0                       0                       0
84                     130                     102              105.656854                       0                       0                       0
85                     130                     102              102.828427                       0                       0                       0
86                     130                     102                     100                       0                       0                       0
87                     100                     104              105.656854                       0                       0                       0
88                     100                     104              102.828427                       0                       0                       0
89                     100                     104                     100                       0                       0                       0
90                     102                     106              105.656854                       0                       0                       0
91                     102                     106              102.828427                       0                       0                       0
92                     102                     106                     100                       0                       0                       0
93                     104                     104              105.656854                       0                       0                       0
94                     104                     104              102.828427                       0                       0                       0
95                     104                     104                     100                       0                       0                       0
96                     106                     106              105.656854                       0                       0                       0
97                     106                     106              102.828427                       0                       0                       0
98                     106                     106                     100                       0                       0                       0
99                     108                     104              105.656854                       0                       0                       0
100                     108                     104              102.828427                       0                       0                       0
101                     108                     104                     100                       0                       0                       0
102                     110                     106              105.656854                       0                       0                       0
103                     110                     106              102.828427                       0                       0                       0
104                     110                     106                     100                       0                       0                       0
105                     112                     104              105.656854                       0                       0                       0
106                     112                     104              102.828427                       0                       0                       0
107                     112                     104                     100                       0                       0                       0
108                     114                     106              105.656854                       0                       0                       0
109                     114                     106              102.828427                       0                       0                       0
110                     114                     106                     100                       0                       0                       0
111                     116                     104              105.656854                       0                       0                       0
112                     116                     104              102.828427                       0                       0                       0
113                     116                     104                     100                       0                       0                       0
114                     118                     106              105.656854                       0                       0                       0
115                     118                     106              102.828427                       0                       0                       0
116                     118                     106                     100                       0                       0                       0
117                     120                     104              105.656854                       0                       0                       0
118                     120                     104              102.828427                       0                       0                       0
119                     120                     104                     100                       0                       0                       0
120                     122                     106              105.656854                       0                       0                       0
121                     122                     106              102.828427                       0                       0                       0
122                     122                     106                     100                       0                       0                       0
123                     124                     104              105.656854                       0                       0                       0
124                     124                     104              102.828427                       0                       0                       0
125                     124                     104                     100                       0                       0                       0
126                     126                     106              105.656854                       0                       0                       0
127                     126                     106              102.828427                       0                       0                       0
128                     126                     106                     100                       0                       0                       0
129                     128                     104              105.656854                       0                       0                       0
130                     128                     104              102.828427                       0                       0                       0
131                     128                     104                     100                       0                       0                       0
132                     130                     106              105.656854                       0                       0                       0
133                     130                     106              102.828427                       0                       0                       0
134                     130                     106                     100                       0                       0                       0
135                     100                     108              105.656854                       0                       0                       0
136                     100                     108              102.828427                       0                       0                       0
137                     100                     108                     100                       0                       0                       0
138                     102                     110              105.656854                       0                       0                       0
139                     102                     110              102.828427                       0                       0                       0
140                     102                     110                     100                       0                       0                       0
141                     104                     108              105.656854                       0                       0                       0
142                     104                     108              102.828427                       0                       0                       0
143                     104                     108                     100                       0                       0                       0
144                     106                     110              105.656854                       0                       0                       0
145                     106                     110              102.828427                       0                       0                       0
146                     106                     110                     100                       0                       0                       0
147                     108                     108              105.656854                       0                       0                       0
148                     108                     108              102.828427                       0                       0                       0
149                     108                     108                     100                       0                       0                       0
150                     110                     110              105.656854                       0                       0                       0
151                     110                     110              102.828427                       0                       0                       0
152                     110                     110                     100                       0                       0                       0
153                     112                     108              105.656854                       0                       0                       0
154                     112                     108              102.828427                       0                       0                       0
155                     112                     108                     100                       0                       0                       0
156                     114                     110              105.656854                       0                       0                       0
157                     114                     110              102.828427                       0                       0                       0
158                     114                     110                     100                       0                       0                       0
159                     116                     108              105.656854                       0                       0                       0
160                     116                     108              102.828427                       0                       0                       0
161                     116                     108                     100                       0                       0                       0
162                     118                     110              105.656854                       0                       0                       0
163                     118                     110              102.828427                       0                       0                       0
164                     118                     110                     100                       0                       0                       0
165                     120                     108              105.656854                       0                       0                       0
166                     120                     108              102.828427                       0                       0                       0
167                     120                     108                     100                       0                       0                       0
168                     122                     110              105.656854                       0                       0                       0
169                     122                     110              102.828427                       0                       0                       0
170                     122                     110                     100                       0                       0                       0
171                     124                     108              105.656854                       0                       0                       0
172                     124                     108              102.828427                       0                       0                       0
173                     124                     108                     100                       0                       0                       0
174                     126                     110              105.656854                       0                       0                       0
175                     126                     110              102.828427                       0                       0                       0
176                     126                     110                     100                       0                       0                       0
177                     128                     108              105.656854                       0                       0                       0
178                     128                     108              102.828427                       0                       0                       0
179                     128                     108                     100                       0                       0                       0
180                     130                     110              105.656854                       0                       0                       0
181                     130                     110              102.828427                       0                       0                       0
182                     130                     110                     100                       0                       0                       0
183                     100                     112              105.656854                       0                       0                       0
184                     100                     112              102.828427                       0                       0                       0
185                     100                     112                     100                       0                       0                       0
186                     102                     114              105.656854                       0                       0                       0
187                     102                     114              102.828427                       0                       0                       0
188                     102                     114                     100                       0                       0                       0
189                     104                     112              105.656854                       0                       0                       0
190                     104                     112              102.828427                       0                       0                       0
191                     104                     112                     100                       0                       0                       0
192                     106                     114              105.656854                       0                       0                       0
193                     106                     114              102.828427                       0                       0                       0
194                     106                     114                     100                       0                       0                       0
195                     108                     112              105.656854                       0                       0                       0
196                     108                     112              102.828427                       0                       0                       0
197                     108                     112                     100                       0                       0                       0
198                     110                     114              105.656854                       0                       0                       0
199                     110                     114              102.828427                       0                       0                       0
200                     110                     114                     100                       0                       0                       0
201                     112                     112              105.656854                       0                       0                       0