ITEM: TIMESTEP
0
ITEM: NUMBER OF ATOMS
422
ITEM: BOX BOUNDS pp pp pp
0.0000000000000000e+00 3.2000000000000000e+01
0.0000000000000000e+00 3.2000000000000000e+01
0.0000000000000000e+00 3.2000000000000000e+01
ITEM: ATOMS id xu yu zu fx fy fz
1        13.1459321938386        15.6835208156773                 8.65685    -0.00775062645766418      0.0103674513841494      0.0134001153203223
2        18.8274848400711        15.6892262416344                 8.65685     0.00768386345910546      0.0104830787605323      0.0138811150140238
3         17.402344993917         15.687795112765                 8.65685    -0.00697894878944433      0.0129675836228777      0.0196568289768557
4         14.571072038949        15.6849519429358                 8.65685      0.0068396641191889       0.013340237284496      0.0204025872930678
5        16.7010751677692        14.4497248501637                 8.65685     -0.0295300303771407      0.0107226671975894      0.0527677240918534
6        15.2748269908674        14.4482926087119                 8.65685      0.0303040699320634      0.0111020201345585      0.0553278396241861
7        15.2723418650276        16.9230222053877                 8.65685      0.0165315328936381     -0.0143315679043265      0.0250506329044503
8        16.6985900414216        16.9244544465825                 8.65685     -0.0160638392879726      -0.013687271411994      0.0235115305577445
9        14.5177569207574        13.2484462411751                 8.65685      0.0237182361704642     -0.0344358072308602       0.114450728305665
10        17.4605534827313        13.2514014038861                 8.65685     -0.0244275698240017     -0.0339041063074419       0.112946434601083
11        14.5128635507729         18.121345651893                 8.65685      0.0333361505871337     0.00787753962668832       0.169318045369988
12        17.4556601106552        18.1243008141789                 8.65685     -0.0346334711058278     0.00789787207856542       0.165345178864986
13        13.1273112602358        13.2624445878976                 8.65685     -0.0296674642199288     -0.0251014234840011      0.0812343687459663
14        13.1224488081137        18.1045547622743                 8.65685       -0.04147592208463     0.00494394112091104        0.11878882940803
15         18.850968226168        13.2681922935721                 8.65685      0.0297856157191369     -0.0256356965508516      0.0840228395513252
16        18.8461057714963        18.1103024705805                 8.65685      0.0413665132636223     0.00539184281114971       0.123343199916166
17         12.426795838139        16.8943199436399                 8.65685     -0.0100139912400679    -0.00846455104444791      0.0104104829139857
18        12.4292290587396        14.4712798150634                 8.65685     -0.0191060253257833     0.00718636374611882      0.0291026506372084
19        19.5466211966922        14.4784271122721                 8.65685      0.0200135212518392     0.00754502335389619      0.0305431207646757
20        19.5441879750283        16.9014672429596                 8.65685       0.010757513576292    -0.00893849986201584      0.0116237500028048
21        20.9551350226241        14.5244350858224                 8.65685     -0.0339945014969088      0.0171928849900354       0.077723292708511
22        20.9527913622507        16.8582882295758                 8.65685     -0.0177311563424193      -0.019199275529641      0.0346436193746417
23        11.0206256731611        14.5144588294926                 8.65685      0.0345327066131389      0.0175145404213231      0.0812547384965403
24        11.0182820131454        16.8483119722736                 8.65685       0.017678591929654     -0.0198095018555003      0.0357303740679016
25        21.5867264607395        15.6919970781177                 8.65685    -0.00201748272338527     0.00581603351205015     0.00107745328032917
26        10.3866905744716        15.6807499786644                 8.65685     0.00195112649743463     0.00610585664422444     0.00151427240081969
27         21.609196045824        17.8859221409264                 8.65685     -0.0113117493674984    -0.00329554024127211      0.0690901216339175
28        21.6136022867001        13.4981215696947                 8.65685    -0.00959038604737997     -0.0124743473514267      0.0572133852620895
29        10.3598147507275        17.8746254872963                 8.65685      0.0105523182768406    -0.00367109887786044      0.0702198102133047
30        10.3642209902605        13.4868249167297                 8.65685     0.00906823079732769     -0.0128002579079256      0.0574545951086482
31        12.5998668222426        12.3154548000933                 8.65685   -0.000139604516756746   -0.000268838035338572    -0.00990282507789932
32        12.5931035005993        19.0504833212092                 8.65685    -0.00128170994843298    0.000835751497984798    -0.00798647765977315
33        19.3803135329519        12.3222637346313                 8.65685    0.000155580958439127   -0.000295577748530365    -0.00986212361626295
34        19.3735502071424         19.057292260389                 8.65685     0.00133194622631262    0.000912867505620973    -0.00782058511703282
35        14.9622865728669        12.2689605638796                 8.65685    0.000290674510151378   -0.000688699041237244    -0.00916878422771665
36         14.955425108682        19.1017221461408                 8.65685      0.0017867799136751     0.00212431436202176    -0.00510223368752976
37        17.0179919240215        12.2710249097393                 8.65685   -0.000285223515178924   -0.000670634911257943    -0.00920729114819371
38         17.011130457531        19.1037864905846                 8.65685    -0.00175631652254749     0.00201067837360705    -0.00538651709364018
39                       0                       0                5.656854                       0                       0                       0
40                       0                       0                2.828427                       0                       0                       0
41                       0                       0                       0                       0                       0                       0
42                       2                       2                5.656854    8.06685053747655e-10    1.10784375330732e-09    2.89333810921629e-10
43                       2                       2                2.828427                       0                       0                       0
44                       2                       2                       0                       0                       0                       0
45                       4                       0                5.656854                       0                       0                       0
46                       4                       0                2.828427                       0                       0                       0
47                       4                       0                       0                       0                       0                       0
48                       6                       2                5.656854    2.66655399561804e-08    5.28747997008446e-08    1.39884585565179e-08
49                       6                       2                2.828427    9.56197974429076e-10    1.91993374365495e-09    9.93885701642278e-10
50                       6                       2                       0    1.63511612317458e-10    2.55565254811911e-10    2.14473343055944e-10
51                       8                       0                5.656854    6.80947853621704e-10    1.09380613750737e-09    4.86341594898678e-10
52                       8                       0                2.828427    5.56880358144034e-10    1.18422154857587e-09    8.61527635113759e-10
53                       8                       0                       0                       0                       0                       0
54                      10                       2                5.656854    1.19527459085275e-07    4.54048425321893e-07      1.231799517803e-07
55                      10                       2                2.828427    4.17653206362387e-09    1.60337931111208e-08    8.43095878090577e-09
56                      10                       2                       0    1.80026632914372e-09    6.86124328415268e-09     5.4439984638752e-09
57                      12                       0                5.656854    1.41819108864753e-09    5.19075724506323e-09    2.52747887020277e-09
58                      12                       0                2.828427    1.43433807553352e-09    7.83911500787567e-09    5.24858620955127e-09
59                      12                       0                       0                       0                       0                       0
60                      14                       2                5.656854    7.42307721836952e-08       1.13107241221e-06    3.11500334634199e-07
61                      14                       2                2.828427    2.59681889267239e-09    3.84476574028278e-08     2.0475584885165e-08
62                      14                       2                       0    9.22535770936363e-10    1.59779148170672e-08     1.2831500070823e-08
63                      16                       0                5.656854   -1.14320929584061e-11    7.49647470317685e-09    3.85476819849466e-09
64                      16                       0                2.828427   -1.42846251417812e-11    1.17242483699145e-08    8.51980356838678e-09
65                      16                       0                       0                       0                       0                       0
66                      18                       2                5.656854   -7.60339388042614e-08    1.12462665393622e-06    3.09653066303086e-07
67                      18                       2                2.828427   -2.65889005658112e-09    3.82482256266636e-08     2.0364831911518e-08
68                      18                       2                       0   -9.49524446314578e-10    1.59053563164306e-08    1.27700580669948e-08
69                      20                       0                5.656854   -1.42459847999047e-09    5.10128459616869e-09    2.50745083223593e-09
70                      20                       0                2.828427   -1.44229699455506e-09    7.74019990294396e-09    5.20371321340363e-09
71                      20                       0                       0                       0                       0                       0
72                      22                       2                5.656854   -1.18392367542601e-07    4.46482821215781e-07    1.21062542438292e-07
73                      22                       2                2.828427   -4.14273862913853e-09    1.57887448205202e-08    8.29770501198578e-09
74                      22                       2                       0   -1.78846346706485e-09    6.76860619833248e-09     5.3675099031123e-09
75                      24                       0                5.656854   -6.73032570210144e-10    1.06297649548216e-09     4.7830618745259e-10
76                      24                       0                2.828427   -5.50935989853043e-10    1.15689582594725e-09    8.46389660214282e-10
77                      24                       0                       0                       0                       0                       0
78                      26                       2                5.656854   -2.60717891242033e-08     5.1514689442277e-08    1.36193706510813e-08
79                      26                       2                2.828427   -9.36579166144652e-10    1.87396099819455e-09    9.69403610087831e-10
80                      26                       2                       0                       0                       0                       0
81                      28                       0                5.656854                       0                       0                       0
82                      28                       0                2.828427                       0                       0                       0
83                      28                       0                       0                       0                       0                       0
84                      30                       2                5.656854   -7.81736698416045e-10    1.07179553142641e-09    2.79644139054139e-10
85                      30                       2                2.828427                       0                       0                       0
86                      30                       2                       0                       0                       0                       0
87                       0                       4                5.656854    7.67199038596993e-12    4.04801597332882e-10    1.27934674541835e-10
88                       0                       4                2.828427                       0                       0                       0
89                       0                       4                       0                       0                       0                       0
90                       2                       6                5.656854    1.35735676032158e-07    1.20566171625529e-07    4.64335911816194e-08
91                       2                       6                2.828427    4.93159124992589e-09    4.31873215551276e-09    3.23850703405512e-09
92                       2                       6                       0    1.39040724005622e-09     1.2445553006521e-09    1.43905175749138e-09
93                       4                       4                5.656854    1.62060188681624e-08    2.16332508177259e-08    6.77391899074309e-09
94                       4                       4                2.828427    1.92783399488838e-08    2.57606830835855e-08    1.56569286781696e-08
95                       4                       4                       0    1.99699293380995e-10    2.69427305256805e-10    2.52561328426023e-10
96                       6                       6                5.656854    4.76808582323374e-06     6.8618366117604e-06    2.71440892208441e-06
97                       6                       6                2.828427    1.26273732496162e-07    1.78928923567033e-07     1.3647133874269e-07
98                       6                       6                       0    4.74236746677292e-08    6.64153035534946e-08     7.4816815182056e-08
99                       8                       4                5.656854    1.93835702437057e-07    4.46139247069933e-07    1.44008076050405e-07
100                       8                       4                2.828427    1.90636868934684e-07    4.34225737606478e-07    2.70443846103756e-07
101                       8                       4                       0    2.50538161528441e-09    5.70798501395177e-09     5.2811571310994e-09
102                      10                       6                5.656854    3.24181887318442e-05    9.44102530968064e-05    3.94738038103493e-05
103                      10                       6                2.828427    6.35249872710886e-07    1.81661289465386e-06    1.45012442000951e-06
104                      10                       6                       0    1.83272294311084e-07    5.10755855665199e-07     5.9446600688531e-07
105                      12                       4                5.656854    3.98134534289632e-07    2.35694456589725e-06    7.87539199164718e-07
106                      12                       4                2.828427    3.43371421092389e-07    1.96419855571476e-06    1.26125478709839e-06
107                      12                       4                       0    4.09110787584061e-09    2.27785067305545e-08     2.1518408310419e-08
108                      14                       6                5.656854    1.77929900214946e-05    0.000270685603719314    0.000117334727801155
109                      14                       6                2.828427    3.45909870121482e-07    4.57564491354711e-06    3.77343422158078e-06
110                      14                       6                       0    9.90697637489469e-08    1.14917670317545e-06    1.37462361581513e-06
111                      16                       4                5.656854   -3.71193331221656e-09    3.53527196395639e-06     1.1939215372865e-06
112                      16                       4                2.828427   -3.03958495002067e-09    2.87927953583433e-06    1.86813803890743e-06
113                      16                       4                       0   -3.48498732535426e-11    3.27657899124212e-08    3.12166212258264e-08
114                      18                       6                5.656854   -1.83207093609364e-05    0.000269069650837542    0.000116579738811169
115                      18                       6                2.828427   -3.54923869154398e-07    4.55259971860654e-06    3.75285533214807e-06
116                      18                       6                       0   -1.01371720248539e-07    1.14434247593668e-06    1.36833203236959e-06
117                      20                       4                5.656854   -3.98437731264794e-07    2.32862998473732e-06    7.77640674642033e-07
118                      20                       4                2.828427   -3.43260748438503e-07    1.94255613290984e-06    1.24677472119359e-06
119                      20                       4                       0   -4.10292756150572e-09    2.25711958977063e-08     2.1311992949643e-08
120                      22                       6                5.656854   -3.20292130773064e-05    9.26095064200911e-05    3.86811706728165e-05
121                      22                       6                2.828427   -6.29381241394839e-07     1.7871836751039e-06    1.42530271779438e-06
122                      22                       6                       0   -1.82037769038962e-07    5.03847492134774e-07    5.85929379791524e-07
123                      24                       4                5.656854    -1.9028454461336e-07    4.35836424632276e-07    1.40568554323841e-07
124                      24                       4                2.828427   -1.87572507666775e-07    4.25207058316526e-07     2.6462203653911e-07
125                      24                       4                       0   -2.47172845188388e-09    5.60472981341982e-09    5.18163356511723e-09
126                      26                       6                5.656854    -4.6429062310575e-06     6.6593589382575e-06    2.63125870793022e-06
127                      26                       6                2.828427    -1.2338542001721e-07    1.74269002783525e-07    1.32772151062213e-07
128                      26                       6                       0    -4.6510113723979e-08    6.49304048254539e-08    7.30677685163243e-08
129                      28                       4                5.656854   -1.57438203881551e-08    2.09641307329506e-08    6.55844686577535e-09
130                      28                       4                2.828427   -1.87736216551468e-08    2.50254699759154e-08    1.51963096964584e-08
131                      28                       4                       0   -1.95116829206287e-10    2.62645519544749e-10    2.45945290806694e-10
132                      30                       6                5.656854   -1.31159869471768e-07    1.16405010519284e-07     4.4779616153613e-08
133                      30                       6                2.828427   -4.78105026184938e-09     4.1806819838979e-09    3.13127961238791e-09
134                      30                       6                       0   -1.35298121798071e-09    1.20967523849298e-09    1.39661340390542e-09
135                       0                       8                5.656854    5.01642032553888e-10    1.53772349851068e-08    7.65522717117057e-09
136                       0                       8                2.828427    5.16650367043895e-10    1.71227847285391e-08    1.68048844010365e-08
137                       0                       8                       0    4.67884624934413e-12    1.69208369908035e-10    2.66698638764543e-10
138                       2                      10                5.656854     3.9741364635203e-06    1.89576748863418e-06    1.37640176497311e-06
139                       2                      10                2.828427    1.10448746936473e-07    5.35941809378571e-08    7.39519698069242e-08
140                       2                      10                       0    4.35476113142062e-08    2.11960718024044e-08    4.27345958933655e-08
141                       4                       8                5.656854    1.38744782869217e-06    1.18047252053802e-06    6.07244753241312e-07
142                       4                       8                2.828427    1.11645264719385e-06    9.46949392840693e-07    9.33959790924925e-07
143                       4                       8                       0    1.25352116637142e-08    1.05839889995627e-08    1.53254306251967e-08
144                       6                      10                5.656854    0.000370554046984959    0.000297265445603681    0.000230130751374481
145                       6                      10                2.828427    5.01563648306506e-06    4.00705973005894e-06    5.81868264546661e-06
146                       6                      10                       0    1.05965069678309e-06     8.4151086024328e-07    1.74762739148847e-06
147                       8                       8                5.656854    3.35439763072278e-05    5.47055626131351e-05    2.95819139638657e-05
148                       8                       8                2.828427    1.63896616559602e-05    2.57411988620993e-05    2.65293551885546e-05
149                       8                       8                       0    1.17980419811103e-07    1.78945036210821e-07    2.67618668831147e-07
150                      10                      10                5.656854     0.00378854990561132     0.00722579844949285     0.00613897414858037
151                      10                      10                2.828427    3.05285090690642e-05    5.59579062865414e-05    8.77604588436393e-05
152                      10                      10                       0    4.20694879690598e-06    7.24267997302895e-06    1.59753157678168e-05
153                      12                       8                5.656854    9.09644345426855e-05    0.000410626769727799    0.000243641735325204
154                      12                       8                2.828427    3.17739777251514e-05    0.000136262194824326    0.000150515906158527
155                      12                       8                       0    1.80588246265202e-07    7.26031163447918e-07    1.14358509269629e-06
156                      14                      10                5.656854     0.00124184183908008      0.0174906712840867      0.0164318250196113
157                      14                      10                2.828427    1.15102577401303e-05    0.000131268840497035    0.000225176313822369
158                      14                      10                       0    1.78056351028336e-06    1.50393198993692e-05    3.53275735279359e-05
159                      16                       8                5.656854   -6.53568787835049e-07    0.000597698094976376    0.000363852366929987
160                      16                       8                2.828427   -2.24423851278439e-07    0.000192118548108633    0.000217410907990737
161                      16                       8                       0   -1.24099829575389e-09    9.98556129412936e-07     1.6063513234042e-06
162                      18                      10                5.656854    -0.00129614083424097      0.0174484581999387      0.0163777716849674
163                      18                      10                2.828427   -1.18910407302915e-05    0.000130860109323591    0.000224260128381155
164                      18                      10                       0    -1.8235323944673e-06    1.49992611593323e-05    3.52061764550371e-05
165                      20                       8                5.656854   -9.10169718502113e-05    0.000405388417216706    0.000240235516807009
166                      20                       8                2.828427   -3.18537212562505e-05    0.000134906987371513    0.000148859022935983
167                      20                       8                       0   -1.81244692456484e-07    7.20258997398186e-07    1.13344886570265e-06
168                      22                      10                5.656854    -0.00374783019536113     0.00710431254596324     0.00602171226349571
169                      22                      10                2.828427   -3.02930523956755e-05    5.51581125430659e-05    8.63300186517531e-05
170                      22                      10                       0   -4.18591391795732e-06    7.16101482597389e-06    1.57691102337562e-05
171                      24                       8                5.656854    -3.2814428861983e-05    5.32578239969107e-05    2.87522259047519e-05
172                      24                       8                2.828427   -1.61075045900575e-05     2.5183755578789e-05    2.59172988247335e-05
173                      24                       8                       0    -1.1639511654772e-07    1.75779770474288e-07     2.6255085781781e-07
174                      26                      10                5.656854   -0.000359405047746416     0.00028762571580343     0.00022213449867659
175                      26                      10                2.828427   -4.89557052953353e-06    3.90137357459828e-06    5.65366856293181e-06
176                      26                      10                       0   -1.03958937502454e-06    8.23473692680009e-07     1.7072179394187e-06
177                      28                       8                5.656854   -1.34231305168317e-06    1.13991283532449e-06    5.85448401440297e-07
178                      28                       8                2.828427   -1.08481762574082e-06    9.18338561644059e-07     9.0442231044743e-07
179                      28                       8                       0   -1.22347182966232e-08    1.03100031051024e-08    1.49085476658705e-08
180                      30                      10                5.656854   -3.83124691945345e-06    1.82719162811073e-06    1.32403778070144e-06
181                      30                      10                2.828427   -1.06721580983153e-07    5.17809954428187e-08    7.13541618511742e-08
182                      30                      10                       0   -4.23561407733572e-08    2.05947507117923e-08    4.14529783974611e-08
183                       0                      12                5.656854    4.81839630780443e-09    6.25478555715911e-08    7.19983586413105e-08
184                       0                      12                2.828427    4.79817622202702e-09    6.97232106480478e-08    1.52039842303769e-07
185                       0                      12                       0    5.97356527255857e-11     1.0355920218516e-09    3.20942339919431e-09
186                       2                      14                5.656854    2.01873598318011e-05     2.4292152580587e-06    6.98942954735227e-06
187                       2                      14                2.828427     4.8686521540723e-07    6.23786103845197e-08    3.26125854270571e-07
188                       2                      14                       0    1.68345610192867e-07    2.26861493294767e-08    1.64704698319192e-07
189                       4                      12                5.656854    2.73813875429494e-05    9.43767813222728e-06    1.22304070914219e-05
190                       4                      12                2.828427    1.48276303392141e-05    5.35219985547796e-06    1.26447376695592e-05
191                       4                      12                       0    1.15590720620337e-07    4.33728185554351e-08    1.43287088503524e-07
192                       6                      14                5.656854     0.00338935841480283    0.000577479408683943     0.00213463603488576
193                       6                      14                2.828427    3.14787030415414e-05     6.1699376617551e-06    3.72575625307282e-05
194                       6                      14                       0    4.77690721097132e-06    1.02386658857085e-06    8.05042082352028e-06
195                       8                      12                5.656854     0.00159375269891249     0.00112712298115734     0.00163709654203178
196                       8                      12                2.828427    0.000334476434769675    0.000236621677035676    0.000609949398769279
197                       8                      12                       0    1.28053076826854e-06     8.9961763667321e-07    3.16062404260005e-06
198                      10                      14                5.656854     -0.0264135657429059    -0.00211761563415683      -0.154308135527427
199                      10                      14                2.828427    0.000193269966192297     9.8092402624647e-05    0.000681800279210735
200                      10                      14                       0    1.80705645743815e-05    9.02677468784766e-06    7.79902990826548e-05
201                      12                      12                5.656854     0.00171940587115379     0.00540663160798604     0.00802346657016108