ITEM: TIMESTEP
0
ITEM: NUMBER OF ATOMS
422
ITEM: BOX BOUNDS pp pp pp
0.0000000000000000e+00 3.2000000000000000e+01
0.0000000000000000e+00 3.2000000000000000e+01
0.0000000000000000e+00 3.2000000000000000e+01
ITEM: ATOMS id xu yu zu fx fy fz
1        13.1165583067614        15.9541469286001         8.6274761129228        3.66429051211916         3.5763618801349       0.929048177878722
2        18.8429549490609        16.0046963506242        8.67232010898983       -0.82849357261407      -0.963020769987711     -0.0283079560685881
3        17.4436298780716        16.0290799969196        8.69813488415468       -5.61616458981082       -6.61329230662724       -1.39366099765363
4        14.5869301289611        16.0008100329479        8.67270809001209       -3.48592959005812       -3.45746400892558      -0.797059587327122
5        16.6573767293339        14.7060264117284        8.61315156156473        5.32679578017735        5.07546936112857        1.24413503768805
6        15.2734513622782        14.7469169801227        8.65547437141081       -0.45647584960062       0.206165673133051     -0.0885299514871317
7        15.2510238483049         17.201704188665        8.63553198327732        2.54986281237394        2.62141383736592       0.532068165052849
8        16.6779593832659        17.2038237884269        8.63621934184435        2.90021962908154        3.34356405315906       0.748449187067574
9        14.5339040430948        13.5645933635125        8.67299712233738        -1.8721721290727       -1.70808114808536      -0.346199146165821
10         17.439428991873        13.5302769130278         8.6357255091417        1.47902557789741       0.416249545779845       0.103590074708268
11        14.5343492040106        18.4428313051307         8.6783356532377       -4.05775079710523       -3.07461607754967      -0.898225676509945
12        17.4709943836844        18.4396350872081        8.67218427302918       -2.71463048346123       -2.30306928529064      -0.557294451654767
13         13.126419306528        13.5615526341898        8.65595804629225       0.337424206275853     -0.0162451191426083      0.0441923181611923
14        13.0744211174952        18.3565270716558         8.6088223093815        6.07457916366697        5.43299921562242       0.873043707806516
15        18.8810797738482        13.5983038412523         8.6869615476802       -2.88341959478751       -2.79471925299356      -0.652220594944218
16        18.8396768365327        18.4038735356169        8.65042106503646        1.91798907026633        1.82459690563186       0.326066765007063
17        12.4551670708699        17.2226911763709        8.68522123273091       -3.34881394231117       -4.09602202069729      -0.519188690477885
18        12.4102414033584        14.7522921596822        8.63786234461879       0.781600703533376       0.813874640915414       0.171556535661564
19        19.5677479370305        14.7995538526103        8.67797674033822       0.279649134975757       0.077822829001837       0.434278330110388
20        19.5139453685548        17.1712246364861        8.62660739352657        2.25719525744163        3.11381041631853       0.380893229529966
21        20.9859247750456        14.8552248382439        8.68763975242152       -4.56352141975992       -5.26154050481925      -0.708943603087594
22        20.9298429633025        17.1353398306275        8.63390160105173        3.21711726964067        4.52687973153774       0.309831312854955
23        11.0279961614339        14.8218293177654        8.66422048827279       -1.45423964804808       -1.48683152969047      -0.245542051890361
24        11.0667694728682        17.1967994319965        8.70533745972285       -3.80218843483962       -4.58341439179964      -0.722554945778173
25        21.5423662639369        15.9476368813151         8.6124898031974        4.32891330451266        5.21203593614461       0.405621794448456
26        10.4049503364017        15.9990097405945        8.67510976193008         1.9143686240931        1.32038578787069       0.425258156476035
27        21.6556304004747        18.2323564955771         8.7032843546507       -3.95033260985501       -5.63925957669209      -0.622522275755578
28        21.6320638778926        13.8165831608871        8.67531159119242       0.493530031627807        0.62396971586834       0.132627568505743
29        10.3491827075957        18.1639934441646        8.64621795686825       0.996030558647347        2.04519785875977       0.265832694639929
30        10.3588791224284        13.7814830488976        8.65150813216792       0.417016896009019        1.20869423829295      0.0751938764401723
31        12.6000478218194        12.6156357996701        8.65703099957676      0.0775548592520468      -0.101869347258443       0.003275479416896
32        12.5852016855447        19.3425815061547        8.64894818494541      -0.374019347039793      -0.742150149997382      -0.178222931058163
33        19.3333075719501        12.5752577736295        8.60984403899819       0.532111781287501        1.48794956634094       0.345745701888739
34        19.4198899998036        19.4036320530502        8.70318979266124        -1.1468230236186       -1.96676379767465        -0.2644826309247
35        14.9341642679678        12.5408382589805        8.62872769510093       0.222614749446509       0.842896102243651       0.143037989285013
36        14.9721288817468        19.4184259192057        8.67355377306483      -0.113769184326449       0.196486864980697      0.0558478877922526
37        16.9907031927046        12.5437361784224        8.62956126868308       0.373212343342127       0.104546539475684     -0.0570081559082597
38         16.985926346851        19.3785823799046        8.63164588932002       0.527641950640846       0.736988587525101        0.13036965627159
39                       0                       0                5.656854                       0                       0                       0
40                       0                       0                2.828427                       0                       0                       0
41                       0                       0                       0                       0                       0                       0
42                       2                       2                5.656854                       0                       0                       0
43                       2                       2                2.828427                       0                       0                       0
44                       2                       2                       0                       0                       0                       0
45                       4                       0                5.656854                       0                       0                       0
46                       4                       0                2.828427                       0                       0                       0
47                       4                       0                       0                       0                       0                       0
48                       6                       2                5.656854                       0                       0                       0
49                       6                       2                2.828427                       0                       0                       0
50                       6                       2                       0                       0                       0                       0
51                       8                       0                5.656854                       0                       0                       0
52                       8                       0                2.828427                       0                       0                       0
53                       8                       0                       0                       0                       0                       0
54                      10                       2                5.656854                       0                       0                       0
55                      10                       2                2.828427                       0                       0                       0
56                      10                       2                       0                       0                       0                       0
57                      12                       0                5.656854                       0                       0                       0
58                      12                       0                2.828427                       0                       0                       0
59                      12                       0                       0                       0                       0                       0
60                      14                       2                5.656854                       0                       0                       0
61                      14                       2                2.828427                       0                       0                       0
62                      14                       2                       0                       0                       0                       0
63                      16                       0                5.656854                       0                       0                       0
64                      16                       0                2.828427                       0                       0                       0
65                      16                       0                       0                       0                       0                       0
66                      18                       2                5.656854                       0                       0                       0
67                      18                       2                2.828427                       0                       0                       0
68                      18                       2                       0                       0                       0                       0
69                      20                       0                5.656854                       0                       0                       0
70                      20                       0                2.828427                       0                       0                       0
71                      20                       0                       0                       0                       0                       0
72                      22                       2                5.656854                       0                       0                       0
73                      22                       2                2.828427                       0                       0                       0
74                      22                       2                       0                       0                       0                       0
75                      24                       0                5.656854                       0                       0                       0
76                      24                       0                2.828427                       0                       0                       0
77                      24                       0                       0                       0                       0                       0
78                      26                       2                5.656854                       0                       0                       0
79                      26                       2                2.828427                       0                       0                       0
80                      26                       2                       0                       0                       0                       0
81                      28                       0                5.656854                       0                       0                       0
82                      28                       0                2.828427                       0                       0                       0
83                      28                       0                       0                       0                       0                       0
84                      30                       2                5.656854                       0                       0                       0
85                      30                       2                2.828427                       0                       0                       0
86                      30                       2                       0                       0                       0                       0
87                       0                       4                5.656854                       0                       0                       0
88                       0                       4                2.828427                       0                       0                       0
89                       0                       4                       0                       0                       0                       0
90                       2                       6                5.656854                       0                       0                       0
91                       2                       6                2.828427                       0                       0                       0
92                       2                       6                       0                       0                       0                       0
93                       4                       4                5.656854                       0                       0                       0
94                       4                       4                2.828427                       0                       0                       0
95                       4                       4                       0                       0                       0                       0
96                       6                       6                5.656854                       0                       0                       0
97                       6                       6                2.828427                       0                       0                       0
98                       6                       6                       0                       0                       0                       0
99                       8                       4                5.656854                       0                       0                       0
100                       8                       4                2.828427                       0                       0                       0
101                       8                       4                       0                       0                       0                       0
102                      10                       6                5.656854                       0                       0                       0
103                      10                       6                2.828427                       0                       0                       0
104                      10                       6                       0                       0                       0                       0
105                      12                       4                5.656854                       0                       0                       0
106                      12                       4                2.828427                       0                       0                       0
107                      12                       4                       0                       0                       0                       0
108                      14                       6                5.656854                       0                       0                       0
109                      14                       6                2.828427                       0                       0                       0
110                      14                       6                       0                       0                       0                       0
111                      16                       4                5.656854                       0                       0                       0
112                      16                       4                2.828427                       0                       0                       0
113                      16                       4                       0                       0                       0                       0
114                      18                       6                5.656854                       0                       0                       0
115                      18                       6                2.828427                       0                       0                       0
116                      18                       6                       0                       0                       0                       0
117                      20                       4                5.656854                       0                       0                       0
118                      20                       4                2.828427                       0                       0                       0
119                      20                       4                       0                       0                       0                       0
120                      22                       6                5.656854                       0                       0                       0
121                      22                       6                2.828427                       0                       0                       0
122                      22                       6                       0                       0                       0                       0
123                      24                       4                5.656854                       0                       0                       0
124                      24                       4                2.828427                       0                       0                       0
125                      24                       4                       0                       0                       0                       0
126                      26                       6                5.656854                       0                       0                       0
127                      26                       6                2.828427                       0                       0                       0
128                      26                       6                       0                       0                       0                       0
129                      28                       4                5.656854                       0                       0                       0
130                      28                       4                2.828427                       0                       0                       0
131                      28                       4                       0                       0                       0                       0
132                      30                       6                5.656854                       0                       0                       0
133                      30                       6                2.828427                       0                       0                       0
134                      30                       6                       0                       0                       0                       0
135                       0                       8                5.656854                       0                       0                       0
136                       0                       8                2.828427                       0                       0                       0
137                       0                       8                       0                       0                       0                       0
138                       2                      10                5.656854                       0                       0                       0
139                       2                      10                2.828427                       0                       0                       0
140                       2                      10                       0                       0                       0                       0
141                       4                       8                5.656854                       0                       0                       0
142                       4                       8                2.828427                       0                       0                       0
143                       4                       8                       0                       0                       0                       0
144                       6                      10                5.656854                       0                       0                       0
145                       6                      10                2.828427                       0                       0                       0
146                       6                      10                       0                       0                       0                       0
147                       8                       8                5.656854                       0                       0                       0
148                       8                       8                2.828427                       0                       0                       0
149                       8                       8                       0                       0                       0                       0
150                      10                      10                5.656854                       0                       0                       0
151                      10                      10                2.828427                       0                       0                       0
152                      10                      10                       0                       0                       0                       0
153                      12                       8                5.656854                       0                       0                       0
154                      12                       8                2.828427                       0                       0                       0
155                      12                       8                       0                       0                       0                       0
156                      14                      10                5.656854                       0                       0                       0
157                      14                      10                2.828427                       0                       0                       0
158                      14                      10                       0                       0                       0                       0
159                      16                       8                5.656854                       0                       0                       0
160                      16                       8                2.828427                       0                       0                       0
161                      16                       8                       0                       0                       0                       0
162                      18                      10                5.656854                       0                       0                       0
163                      18                      10                2.828427                       0                       0                       0
164                      18                      10                       0                       0                       0                       0
165                      20                       8                5.656854                       0                       0                       0
166                      20                       8                2.828427                       0                       0                       0
167                      20                       8                       0                       0                       0                       0
168                      22                      10                5.656854                       0                       0                       0
169                      22                      10                2.828427                       0                       0                       0
170                      22                      10                       0                       0                       0                       0
171                      24                       8                5.656854                       0                       0                       0
172                      24                       8                2.828427                       0                       0                       0
173                      24                       8                       0                       0                       0                       0
174                      26                      10                5.656854                       0                       0                       0
175                      26                      10                2.828427                       0                       0                       0
176                      26                      10                       0                       0                       0                       0
177                      28                       8                5.656854                       0                       0                       0
178                      28                       8                2.828427                       0                       0                       0
179                      28                       8                       0                       0                       0                       0
180                      30                      10                5.656854                       0                       0                       0
181                      30                      10                2.828427                       0                       0                       0
182                      30                      10                       0                       0                       0                       0
183                       0                      12                5.656854                       0                       0                       0
184                       0                      12                2.828427                       0                       0                       0
185                       0                      12                       0                       0                       0                       0
186                       2                      14                5.656854                       0                       0                       0
187                       2                      14                2.828427                       0                       0                       0
188                       2                      14                       0                       0                       0                       0
189                       4                      12                5.656854                       0                       0                       0
190                       4                      12                2.828427                       0                       0                       0
191                       4                      12                       0                       0                       0                       0
192                       6                      14                5.656854                       0                       0                       0
193                       6                      14                2.828427                       0                       0                       0
194                       6                      14                       0                       0                       0                       0
195                       8                      12                5.656854                       0                       0                       0
196                       8                      12                2.828427                       0                       0                       0
197                       8                      12                       0                       0                       0                       0
198                      10                      14                5.656854                       0                       0                       0
199                      10                      14                2.828427                       0                       0                       0
200                      10                      14                       0                       0                       0                       0
201                      12                      12                5.656854                       0                       0                       0