ITEM: TIMESTEP
0
ITEM: NUMBER OF ATOMS
422
ITEM: BOX BOUNDS ff ff ff
0.0000000000000000e+00 2.3200000000000000e+02
0.0000000000000000e+00 2.3200000000000000e+02
0.0000000000000000e+00 2.3200000000000000e+02
ITEM: ATOMS id xu yu zu fx fy fz
1        113.131882195489        115.969470817328        108.642804001651    -0.00436065096734199   -0.000188669645027105     0.00817628700286556
2        118.821173991433        115.982915392996        108.650543151362     0.00154979039367959   -0.000635616976584101     0.00864423183882482
3        117.446660126799        116.032110245647        108.701169132882   -0.000116919742166935     0.00167388211481946     0.00909986450854748
4        114.586419658876        116.000299562863        108.672201619927     0.00626879690828597     0.00283455274458527      0.0119529009780812
5        116.707579425851        114.756229108246        108.663358258082     -0.0169750145533873      0.0162705610170072      0.0384210127137834
6         115.25728994507        114.730755562914        108.639316954202      0.0279187323566006      0.0180606687654382      0.0478358614969478
7        115.309950249918        117.260630590278        108.694462384891      0.0222824994365787    -0.00686182451627051      0.0318601129319209
8        116.655237244536        117.181101649697        108.613501203114     -0.0181352786177891    -0.00977358121557107      0.0412853584268647
9        114.534235784796        113.564925105214        108.673332864039      0.0297746528132905      -0.034441971952967       0.147469235312186
10         117.41186039342        113.502708314575        108.608160910688       -0.05755916830611     -0.0435777597618393       0.173574628802769
11        114.532361488238        118.440843589358        108.676351937465       0.028886998632917      0.0159026553848127       0.147449411430603
12        117.413542988473        118.382183691997        108.614736877818     -0.0580053759251372      0.0176548481689256       0.183799603831199
13        113.147315743149        113.582449070811        108.676858482914     -0.0262984150479693     -0.0284573995373185       0.105389697560685
14        113.121927119272        118.404033073433        108.656332311159     -0.0301204851118674      0.0131572588234528       0.113105030334794
15        118.874687085345        113.591911152749        108.680572859177      0.0102574544134135     -0.0271609712304682       0.103405938540136
16        118.852974633159        118.417171332243        108.663722861663      0.0134134984240546      0.0137844574483611       0.113986978958805
17        112.438961572688        117.206485678189        108.669019734549    -0.00834137042521953     0.00194739769530583      0.0204261285353964
18        112.467180419448        114.809231175772        108.694805360708    -0.00781293784543047     0.00712671420052263      0.0181499554912592
19        119.549486771982        114.781292687562         108.65971957529      0.0190245239494488     0.00727371562860127      0.0217814557796591
20        119.540049252214        117.197328520145        108.652715277186      0.0192266673310364     0.00100980492365615      0.0220515900089414
21        120.968767682647        114.838067745846        108.670486660023       0.132401456038702       0.121163643503785      0.0329415075882186
22        120.922813020897        117.128309888222        108.626875658646       0.131972327300568     -0.0234037175820113      0.0374179001621816
23        111.023177136996        114.817010293328        108.659405463835     -0.0134826791411177       0.126851502009744      0.0582708225712758
24        111.057097748915        117.187127708043        108.695669735769      -0.014574879213374     -0.0206970919923466      0.0451939194909101
25        121.591536401203        115.996807018581        108.661663940464      -0.057249743255232     -0.0262675757299904      0.0032624574979088
26        110.380955680232        115.975015084425         108.65111910576    -0.00894874520846668     -0.0270370015201689     -0.0102315256755267
27        121.657178555441        118.233904650544        108.704836509617      -0.165765711973338     -0.0436026363008993       0.165812544287699
28        121.618982881365         113.80350216436        108.662234594665      -0.179685770737396     -0.0759072578158426       0.170791337734475
29        110.339512220398        118.154322956967        108.636551469671      0.0267545078954379      -0.055333073439117       0.166661171983983
30        110.398170839934        113.820774766403        108.690803849674      0.0307812253621782     -0.0786136422289697       0.126516256986761
31        112.567841462966        112.583429440816        108.624828640723     -0.0159732478560189      0.0283101688610734      0.0153577718467765
32        112.563810103007        119.321189923617        108.627560602408     -0.0142304206607749      0.0167189043495406      0.0063478164875093
33        119.362924476509        112.604874678189        108.639464943557      0.0571292168396424      0.0271061231617737     0.00730323482077045
34        119.329882466345        119.313624519592        108.613186259203      0.0552743135637076       0.015582597997309     0.00183037848568463
35        115.006138167148         112.61281215816        108.700705594281     0.00396269853972557      0.0154720254943629   -0.000589503022588002
36        114.981911935031        119.428208972489        108.683340826349     0.00435108178229425      0.0135868707054586    -0.00452748389262621
37        116.991580290913        112.544613276631        108.630442366892      0.0230204985889718      0.0145159529281945    -0.00089390511530674
38        117.034322098045        119.426978131098        108.680045640514      0.0202414156639244      0.0136095245001933    -0.00540304786929079
39                     100                     100              105.656854       0.212119019518504       0.213980028538695      -0.975675120748104
40                     100                     100              102.828427       0.432060964003025       0.430428423029295   -0.000373051805797841
41                     100                     100                     100       0.212101303274465       0.213439805845782       0.976307994302572
42                     102                     102              105.656854      -0.344411015681995       -0.34758675402703      -0.277982347568493
43                     102                     102              102.828427     -0.0509757245092387     -0.0483109602751567    0.000676276790359449
44                     102                     102                     100      -0.344419079251855      -0.346478237772378       0.276872952463917
45                     104                     100              105.656854      0.0956850448538371       0.960062708057512       -0.80893241907257
46                     104                     100              102.828427     -0.0636707786027274       0.726709305133501   -0.000264519851589647
47                     104                     100                     100      0.0960737935825332       0.959435413867777       0.809351446647549
48                     106                     102              105.656854      -0.148934311964125      -0.514872989870393      -0.381460261087056
49                     106                     102              102.828427       0.142056430133181      0.0665028406887376    0.000345224846533845
50                     106                     102                     100      -0.149995376216566      -0.513734559990549       0.380949061321333
51                     108                     100              105.656854       0.109411146831948        1.05997844641591      -0.801904594246341
52                     108                     100              102.828427      -0.111413595007015       0.639968016516266    0.000279377561579734
53                     108                     100                     100       0.110489723611151        1.05996256927263       0.801394225792796
54                     110                     102              105.656854      -0.142924073826896      -0.581620488780091      -0.373822330692654
55                     110                     102              102.828427        0.14772621172006       0.134604338930764    -0.00102349079452761
56                     110                     102                     100      -0.145366068950889      -0.582473102268913       0.375561001702812
57                     112                     100              105.656854       0.131578637063099        1.10818830465211      -0.810677395185812
58                     112                     100              102.828427      -0.135370285047018       0.589653634918245     0.00120483438135069
59                     112                     100                     100       0.132758006767557        1.10970506398978       0.808639891743739
60                     114                     102              105.656854      -0.163722641135614      -0.618371086558407      -0.361350251273691
61                     114                     102              102.828427       0.168661864395588       0.174483158614869    -0.00271927056715905
62                     114                     102                     100      -0.165205182098635       -0.62244998993129       0.365826079963288
63                     116                     100              105.656854        0.16660086985901        1.14362524446441      -0.821229716440109
64                     116                     100              102.828427       -0.17077963933574       0.552522381243718     0.00170776678570995
65                     116                     100                     100       0.166591047432823        1.14608156240595       0.818371966147125
66                     118                     102              105.656854      -0.209607355597046      -0.650570111026634      -0.347925979014326
67                     118                     102              102.828427       0.214444183402523       0.207723936829782    -0.00270692558036564
68                     118                     102                     100      -0.208092346525365      -0.654633450729358        0.35238357985588
69                     120                     100              105.656854       0.223329226121807         1.1822824581574      -0.835233549529826
70                     120                     100              102.828427      -0.228737076410288       0.513144152500012     0.00119046559997808
71                     120                     100                     100       0.222132889589858        1.18378048859204       0.833219071816254
72                     122                     102              105.656854      -0.288969747552907      -0.687824281541482      -0.330323395980845
73                     122                     102              102.828427        0.29373447998838       0.244173666138209   -0.000989281970612514
74                     122                     102                     100      -0.286508792205336      -0.688626309798935       0.332009516444516
75                     124                     100              105.656854       0.326488135188978        1.23664880099107      -0.852081156160509
76                     124                     100              102.828427      -0.323117996927823       0.459572936169666    0.000256535602223922
77                     124                     100                     100       0.325404582513935        1.23660430825496       0.851608624367328
78                     126                     102              105.656854      -0.461839790164626      -0.727717811106172      -0.332067754168294
79                     126                     102              102.828427        0.39737217950093       0.281694284684456    0.000382275660764705
80                     126                     102                     100      -0.460785824014841      -0.726533389359901       0.331496178303324
81                     128                     100              105.656854       0.708353090094523        1.34073850745105      -0.754709032645215
82                     128                     100              102.828427      -0.281009238293183       0.396075973314048   -0.000286768640258197
83                     128                     100                     100       0.707968421129542         1.3400886540273       0.755166816270701
84                     130                     102              105.656854       -1.34067385202324       -0.70879374283956      -0.755456044165758
85                     130                     102              102.828427      -0.395779744164779       0.281047287751712    0.000704673255188382
86                     130                     102                     100       -1.34067711845099      -0.707659724470214       0.754296915982943
87                     100                     104              105.656854       0.959035036140505       0.100068805318863       -0.80841404345554
88                     100                     104              102.828427        0.72772975232621     -0.0672518593257011    -0.00104245094788364
89                     100                     104                     100        0.95848721111507      0.0987418367532623       0.810143445000915
90                     102                     106              105.656854      -0.513685865814707      -0.157162219764078      -0.382806453822157
91                     102                     106              102.828427      0.0651247845656084       0.148233233054006     0.00215001374470903
92                     102                     106                     100      -0.512380496025102        -0.1541559739375       0.379341091059696
93                     104                     104              105.656854       0.247025368118637       0.252913758876692      -0.388499981530191
94                     104                     104              102.828427      -0.179819415153739      -0.184417232535961      -0.001294093040486
95                     104                     104                     100       0.247205653749632       0.250460208152874       0.390558895419893
96                     106                     106              105.656854      -0.232758654281707      -0.244970907524064      -0.504672373420031
97                     106                     106              102.828427       0.224956866552162       0.233359339498843     0.00255637416243611
98                     106                     106                     100      -0.233907235216729      -0.239115953672697       0.500572507767259
99                     108                     104              105.656854       0.172690115036546       0.338442428215843      -0.375250842723925
100                     108                     104              102.828427      -0.176816674637243      -0.268609428683872   -0.000190007952850893
101                     108                     104                     100       0.175837692383362       0.336623471708144       0.375477130932851
102                     110                     106              105.656854      -0.180699439097244      -0.292463881718064      -0.489873036349092
103                     110                     106              102.828427       0.191384388807984       0.285228129344066      -0.001377795344563
104                     110                     106                     100      -0.190433175283226      -0.291599895587221       0.492157739767059
105                     112                     104              105.656854       0.166398790157013       0.378704699850039      -0.391001284675286
106                     112                     104              102.828427      -0.173711056719652      -0.314011654348181     0.00325456912721942
107                     112                     104                     100       0.171459308123854       0.383149336459972       0.385646035312792
108                     114                     106              105.656854      -0.187480588155847      -0.306175262263263      -0.466563566847812
109                     114                     106              102.828427       0.197033004817492       0.310943331663876    -0.00898384636510351
110                     114                     106                     100      -0.194832182453589      -0.321896701816643        0.48189981917786
111                     116                     104              105.656854       0.198204929121671       0.404322117687847      -0.406524949767747
112                     116                     104              102.828427       -0.20340169969829      -0.343514345247423     0.00551551281917467
113                     116                     104                     100       0.198181735347077       0.413538981801185       0.397507998545549
114                     118                     106              105.656854      -0.241800982820994      -0.328316860920274      -0.450669823866554
115                     118                     106              102.828427       0.243786523352358       0.333788302602533     -0.0089549809885347
116                     118                     106                     100      -0.234336911300477      -0.344042930456774       0.465980783270957
117                     120                     104              105.656854       0.261089082103104       0.435393371410382      -0.421687166429655
118                     120                     104              102.828427       -0.26531533661266      -0.372501395449203     0.00321002091195573
119                     120                     104                     100       0.255965770486816       0.439768946714219       0.416395117078529
120                     122                     106              105.656854      -0.319659307848418      -0.362613131351744      -0.438251759903335
121                     122                     106              102.828427       0.320618780549677       0.357458721124954    -0.00125116365384329
122                     122                     106                     100      -0.309863520914867      -0.361493020823404       0.440340011739965
123                     124                     104              105.656854       0.368576253966339       0.463829110590177      -0.438502943190893
124                     124                     104              102.828427      -0.362878261071963      -0.397827943332807   -0.000258294851875166
125                     124                     104                     100       0.365434067988544        0.46190260861774       0.438832690436414
126                     126                     106              105.656854      -0.466438370881532      -0.369380323745788      -0.441717783617346
127                     126                     106              102.828427       0.401395614918439       0.361591488896141     0.00265824271327162
128                     126                     106                     100      -0.465368588288327      -0.363387893843279       0.437459656346839
129                     128                     104              105.656854       0.728136417979641       0.462461264744022      -0.330587527584484
130                     128                     104              102.828427      -0.282786225553782      -0.397113728716631    -0.00134376677846702
131                     128                     104                     100       0.727983924377626       0.459954799863432       0.332728012128372
132                     130                     106              105.656854       -1.23668399340564      -0.328459668610037      -0.853715635042636
133                     130                     106              102.828427      -0.458662215282505       0.323971785060087      0.0022037679234709
134                     130                     106                     100       -1.23802894457316      -0.325412963342867        0.85015838322674
135                     100                     108              105.656854        1.06295959090867        0.11676018746202      -0.799923293030564
136                     100                     108              102.828427         0.6382691244695      -0.117007113813603    -0.00248151245344486
137                     100                     108                     100         1.0605871009181       0.114300716626359       0.803961854792809
138                     102                     110              105.656854      -0.589847127683622      -0.155882549683379      -0.379163928743578
139                     102                     110              102.828427       0.138616512705556       0.156509317250839     0.00536578482307341
140                     102                     110                     100      -0.583710101688488      -0.150637757377208       0.370525653018218
141                     104                     108              105.656854       0.337992874541142       0.189681064483861      -0.371064353965443
142                     104                     108              102.828427      -0.266833035560038      -0.187835715381452     -0.0047896161898387
143                     104                     108                     100        0.33460350851973       0.182235606478089        0.37882466627161
144                     106                     110              105.656854      -0.297269157987277      -0.219051739224547      -0.506274909087505
145                     106                     110              102.828427       0.282768110338191       0.210546576791601      0.0110807554946526
146                     106                     110                     100      -0.288286064775979      -0.199507437249535       0.485417290732299
147                     108                     108              105.656854       0.220952675527403       0.250368337897698      -0.358946539153144
148                     108                     108              102.828427      -0.228297992762373      -0.244179444117136    -0.00463405706226521
149                     108                     108                     100       0.227688477140714       0.235795639706902       0.367933868210696
150                     110                     110              105.656854      -0.178526962672583      -0.255414461152423      -0.488660084936293
151                     110                     110              102.828427       0.215234088799775       0.243022112971941     0.00402234582618555
152                     110                     110                     100      -0.221330349623097      -0.232550660936737       0.475531583489806
153                     112                     108              105.656854       0.175159407500598       0.255314987094118      -0.393994624496053
154                     112                     108              102.828427      -0.197639497445468      -0.268854970455733         0.0087617686912
155                     112                     108                     100       0.200908119937668       0.267105962371072       0.377654264786206
156                     114                     110              105.656854      -0.178253642490229      -0.184438181242221      -0.384764189907885
157                     114                     110              102.828427           0.20856998104       0.246109282019211     -0.0275186330438062
158                     114                     110                     100      -0.213050346474933      -0.249128151070609       0.470361028757801
159                     116                     108              105.656854       0.220040683791658       0.249200597228305       -0.42592962035771
160                     116                     108              102.828427      -0.226007785974508      -0.281251238392074      0.0196189781638256
161                     116                     108                     100       0.220118906061018       0.285736677534631       0.388485246491338
162                     118                     110              105.656854      -0.284888799896526      -0.193995887337372      -0.366448318499335
163                     118                     110              102.828427       0.266564332698305       0.256998539016737     -0.0276180419648049
164                     118                     110                     100      -0.249422581616965      -0.259906897602603       0.453097936103134
165                     120                     108              105.656854       0.300367313603903       0.289066300601503      -0.428494340799875
166                     120                     108              102.828427      -0.290654626283556      -0.303327899124146      0.0086157475903339
167                     120                     108                     100       0.274123192621415       0.300534303214899       0.412457250641967
168                     122                     110              105.656854      -0.358256601401211      -0.289974562020386      -0.434232446657661
169                     122                     110              102.828427       0.334583621863774       0.277110076854911     0.00444440871510461
170                     122                     110                     100      -0.315481097443094      -0.265721519573535       0.419174628500993
171                     124                     108              105.656854       0.375812177555788       0.320310503263523      -0.430884792640471
172                     124                     108              102.828427      -0.368707125483786      -0.315987114938627     -0.0048708760555316
173                     124                     108                     100       0.369289764519096       0.305283211518386        0.44030729509039
174                     126                     110              105.656854      -0.437825847316705      -0.274863773268743      -0.435395071201716
175                     126                     110              102.828427       0.380941241026926       0.268011932156682      0.0112827673217532
176                     126                     110                     100      -0.447263706830183      -0.255230614606911       0.414100768040406
177                     128                     108              105.656854       0.688446034197938       0.293818461151807      -0.326191503787431
178                     128                     108              102.828427      -0.246958626086314      -0.295301499180291    -0.00489039874479613
179                     128                     108                     100        0.69195586200674       0.286302142530162        0.33411956476127
180                     130                     110              105.656854       -1.17961830247911      -0.228208342690183      -0.839298520583324
181                     130                     110              102.828427      -0.512662846589174        0.23119565716118     0.00543978180696768
182                     130                     110                     100       -1.18581583867076      -0.222956641731819       0.830519471335929
183                     100                     112              105.656854        1.11849323166754       0.138313844385917      -0.806353637540184
184                     100                     112              102.828427       0.583332811762568      -0.140249301097482    -0.00448292012474469
185                     100                     112                     100        1.11278353520894       0.135883235431683       0.813578570505267
186                     102                     114              105.656854      -0.639431149303796      -0.170832880358629      -0.371641310088064
187                     102                     114              102.828427       0.185289863979149         0.1732867088863     0.00885243382666203
188                     102                     114                     100      -0.626688066103762      -0.167836166784354       0.357304157041674
189                     104                     112              105.656854        0.40137495721704       0.188069728057243      -0.374598705535764
190                     104                     112              102.828427      -0.322186440412164      -0.186019465255857     -0.0118855672832942
191                     104                     112                     100         0.3848630909672       0.177755353993776       0.395138970440909
192                     106                     114              105.656854      -0.356355597535898      -0.210871619832428      -0.517529507323009
193                     106                     114              102.828427       0.322083411425175       0.208676863848172      0.0236487513164269
194                     106                     114                     100      -0.322502748737353      -0.199967996062993       0.466324218991522
195                     108                     112              105.656854       0.279860559017951       0.257502796660408      -0.311060806940889
196                     108                     112              102.828427      -0.261763382898291      -0.224031171363703     -0.0211845501392624
197                     108                     112                     100       0.261084171778569       0.211264093183592       0.389233549207882
198                     110                     114              105.656854      -0.154266478719683      -0.208595359360123      -0.724718220198184
199                     110                     114              102.828427       0.223219165779739        0.22748890398388      0.0163813896839245
200                     110                     114                     100      -0.239131983957138      -0.220432936384912       0.456360412713282
201                     112                     112              105.656854      0.0984473828840143       0.230539311842837      -0.435179429712164