ITEM: TIMESTEP
0
ITEM: NUMBER OF ATOMS
422
ITEM: BOX BOUNDS pp pp pp
0.0000000000000000e+00 3.2000000000000000e+01
0.0000000000000000e+00 3.2000000000000000e+01
0.0000000000000000e+00 3.2000000000000000e+01
ITEM: ATOMS id xu yu zu fx fy fz
1        13.1709578005404        16.0085464223791        8.68187560670182       -1.20442206416052       -1.72626530663516       -0.21179082251678
2        18.8475449811697         16.009286382733        8.67691014109859         0.3272008635849       0.141713764155603       0.255656658632591
3        17.4212213102146        16.0066714290626        8.67572631629763       -2.97875757321111       -3.46637059621757      -0.753977169017294
4        14.5845220404019        15.9984019443887        8.67030000145283       0.112136406233769      -0.374809343548131     -0.0396909799125164
5        16.6515467732563        14.7001964556508        8.60732160548711        5.24428177400185        5.42018860303414        1.22779527188919
6        15.2583615750103        14.7318271928548         8.6403845841429      -0.229690392624771       0.608011311799497     -0.0190953181717954
7         15.291546691871        17.2422270322312        8.67605482684347       -0.87106942492811       -1.33655811490315      -0.300907611700914
8        16.7079890556344        17.2338534607954        8.66624901421284       0.631067012148908       0.467098649060938       0.238679883360948
9         14.517126101016        13.5478154214337         8.6562191802586       -2.65131384358638       -1.59890028715587      -0.424857639315822
10        17.4763949617612        13.5672428829159        8.67269147902982       -1.51404965492155       -2.77329813658117      -0.553387893819326
11        14.5127500942024        18.4212321953225        8.65673654342952        1.39458328865592        2.19078739506326       0.393407037996255
12        17.4623587036123        18.4309994071359        8.66354859295705       -1.39504059770067       -1.49214517176222      -0.329253858236166
13         13.080043654003        13.5151769816648        8.60958239376722        4.63505157065988        4.72724441025596       0.809421537430825
14        13.1208636994173         18.402969653578        8.65526489130367      -0.425476128314289      0.0813014066832058     -0.0751842517759338
15        18.8860087897188        13.6032328571229        8.69189056355078      -0.736822107559736      -0.404432522790517      -0.128751938309216
16        18.8243903132022        18.3885870122864        8.63513454170593        3.40062373687639        3.89697473907492       0.610788136449023
17        12.4204778660231         17.188001971524        8.65053202788408      -0.648082241332057     -0.0920944403205189      -0.412074748242604
18        12.4424400504854        14.7844908068092        8.67006099174579       -1.90076271465791       -2.65692312199019      -0.857594780308481
19        19.5891081509349        14.8209140665148         8.6993369542427      -0.961701885397403      -0.518141919396724     -0.0035508211921495
20        19.5565054550495        17.2137847229808        8.66916748002122        -1.6403013358861       -1.61673432107574      -0.463317592584991
21        21.0020688884978        14.8713689516961        8.70378386587375       -1.56513719694577       -3.29862472387187      -0.471554002120174
22        20.9435943561611        17.1490912234861        8.64765299391034        4.82521333422478        5.82383188003853        1.06460410132786
23        11.0085184848738        14.8023516412053        8.64474281171275        5.39460605085516        6.48944813113843        1.06361897206074
24        10.9719981516437        17.1020281107719        8.61056613849827        7.67028709567868        7.86068778112112       0.980379090021841
25        21.6286043759716        16.0338749933498        8.69872791523209      -0.736107624653199       -1.80642416864402      -0.416559769362175
26        10.4355456936383        16.0296050978312        8.70570511916674       -6.76416843463122       -7.83395392937565      -0.698704202557657
27        21.6345073485189        18.2112334436212        8.68216130269483       -2.56050586434625       -2.39329309754682      -0.383282175907039
28        21.5959070388447        13.7804263218393        8.63915475214454       0.995556888204764        2.44638872179113        0.36868659895849
29        10.3472958836769        18.1621066202458        8.64433113294946       -1.01098760366652       -1.56309890789109      -0.238132852432444
30        10.3893275081461        13.8119314346153        8.68195651788558       -2.83107127789102       -2.50311169466156   -0.000979807257466804
31        12.6064980401881        12.6220860180388        8.66348121794548       -1.33916656441258       -1.82264987328255      -0.124632782578251
32        12.5974837031345        19.3548635237445        8.66123020253522     -0.0474178849696022      -0.138286618938779     -0.0342687599347551
33        19.3821968722836         12.624147073963        8.65873333933171       0.174090081930612       0.594970328735259       0.143268167818248
34        19.4063525901588        19.3900946434054        8.68965238301644       -1.39201077635784       -1.90708850025127      -0.340739926925653
35        14.9642889170547        12.5709629080674        8.65885234418782      0.0256020421508069    0.000139233293576375      0.0301124672226702
36        14.9995165573636        19.4458135948225        8.70094144868165       -1.51659141804937       -1.49945776380005      -0.141563124047677
37         16.995740960638        12.5487739463558         8.6345990366165        1.27338130137354        1.20643641254669       0.146902304043606
38        16.9687735926732        19.3614296257267        8.61449313514216        0.81697316362401       0.867439792848348       0.090532601014995
39                       0                       0                5.656854                       0                       0                       0
40                       0                       0                2.828427                       0                       0                       0
41                       0                       0                       0                       0                       0                       0
42                       2                       2                5.656854                       0                       0                       0
43                       2                       2                2.828427                       0                       0                       0
44                       2                       2                       0                       0                       0                       0
45                       4                       0                5.656854                       0                       0                       0
46                       4                       0                2.828427                       0                       0                       0
47                       4                       0                       0                       0                       0                       0
48                       6                       2                5.656854                       0                       0                       0
49                       6                       2                2.828427                       0                       0                       0
50                       6                       2                       0                       0                       0                       0
51                       8                       0                5.656854                       0                       0                       0
52                       8                       0                2.828427                       0                       0                       0
53                       8                       0                       0                       0                       0                       0
54                      10                       2                5.656854                       0                       0                       0
55                      10                       2                2.828427                       0                       0                       0
56                      10                       2                       0                       0                       0                       0
57                      12                       0                5.656854                       0                       0                       0
58                      12                       0                2.828427                       0                       0                       0
59                      12                       0                       0                       0                       0                       0
60                      14                       2                5.656854                       0                       0                       0
61                      14                       2                2.828427                       0                       0                       0
62                      14                       2                       0                       0                       0                       0
63                      16                       0                5.656854                       0                       0                       0
64                      16                       0                2.828427                       0                       0                       0
65                      16                       0                       0                       0                       0                       0
66                      18                       2                5.656854                       0                       0                       0
67                      18                       2                2.828427                       0                       0                       0
68                      18                       2                       0                       0                       0                       0
69                      20                       0                5.656854                       0                       0                       0
70                      20                       0                2.828427                       0                       0                       0
71                      20                       0                       0                       0                       0                       0
72                      22                       2                5.656854                       0                       0                       0
73                      22                       2                2.828427                       0                       0                       0
74                      22                       2                       0                       0                       0                       0
75                      24                       0                5.656854                       0                       0                       0
76                      24                       0                2.828427                       0                       0                       0
77                      24                       0                       0                       0                       0                       0
78                      26                       2                5.656854                       0                       0                       0
79                      26                       2                2.828427                       0                       0                       0
80                      26                       2                       0                       0                       0                       0
81                      28                       0                5.656854                       0                       0                       0
82                      28                       0                2.828427                       0                       0                       0
83                      28                       0                       0                       0                       0                       0
84                      30                       2                5.656854                       0                       0                       0
85                      30                       2                2.828427                       0                       0                       0
86                      30                       2                       0                       0                       0                       0
87                       0                       4                5.656854                       0                       0                       0
88                       0                       4                2.828427                       0                       0                       0
89                       0                       4                       0                       0                       0                       0
90                       2                       6                5.656854                       0                       0                       0
91                       2                       6                2.828427                       0                       0                       0
92                       2                       6                       0                       0                       0                       0
93                       4                       4                5.656854                       0                       0                       0
94                       4                       4                2.828427                       0                       0                       0
95                       4                       4                       0                       0                       0                       0
96                       6                       6                5.656854                       0                       0                       0
97                       6                       6                2.828427                       0                       0                       0
98                       6                       6                       0                       0                       0                       0
99                       8                       4                5.656854                       0                       0                       0
100                       8                       4                2.828427                       0                       0                       0
101                       8                       4                       0                       0                       0                       0
102                      10                       6                5.656854                       0                       0                       0
103                      10                       6                2.828427                       0                       0                       0
104                      10                       6                       0                       0                       0                       0
105                      12                       4                5.656854                       0                       0                       0
106                      12                       4                2.828427                       0                       0                       0
107                      12                       4                       0                       0                       0                       0
108                      14                       6                5.656854                       0                       0                       0
109                      14                       6                2.828427                       0                       0                       0
110                      14                       6                       0                       0                       0                       0
111                      16                       4                5.656854                       0                       0                       0
112                      16                       4                2.828427                       0                       0                       0
113                      16                       4                       0                       0                       0                       0
114                      18                       6                5.656854                       0                       0                       0
115                      18                       6                2.828427                       0                       0                       0
116                      18                       6                       0                       0                       0                       0
117                      20                       4                5.656854                       0                       0                       0
118                      20                       4                2.828427                       0                       0                       0
119                      20                       4                       0                       0                       0                       0
120                      22                       6                5.656854                       0                       0                       0
121                      22                       6                2.828427                       0                       0                       0
122                      22                       6                       0                       0                       0                       0
123                      24                       4                5.656854                       0                       0                       0
124                      24                       4                2.828427                       0                       0                       0
125                      24                       4                       0                       0                       0                       0
126                      26                       6                5.656854                       0                       0                       0
127                      26                       6                2.828427                       0                       0                       0
128                      26                       6                       0                       0                       0                       0
129                      28                       4                5.656854                       0                       0                       0
130                      28                       4                2.828427                       0                       0                       0
131                      28                       4                       0                       0                       0                       0
132                      30                       6                5.656854                       0                       0                       0
133                      30                       6                2.828427                       0                       0                       0
134                      30                       6                       0                       0                       0                       0
135                       0                       8                5.656854                       0                       0                       0
136                       0                       8                2.828427                       0                       0                       0
137                       0                       8                       0                       0                       0                       0
138                       2                      10                5.656854                       0                       0                       0
139                       2                      10                2.828427                       0                       0                       0
140                       2                      10                       0                       0                       0                       0
141                       4                       8                5.656854                       0                       0                       0
142                       4                       8                2.828427                       0                       0                       0
143                       4                       8                       0                       0                       0                       0
144                       6                      10                5.656854                       0                       0                       0
145                       6                      10                2.828427                       0                       0                       0
146                       6                      10                       0                       0                       0                       0
147                       8                       8                5.656854                       0                       0                       0
148                       8                       8                2.828427                       0                       0                       0
149                       8                       8                       0                       0                       0                       0
150                      10                      10                5.656854                       0                       0                       0
151                      10                      10                2.828427                       0                       0                       0
152                      10                      10                       0                       0                       0                       0
153                      12                       8                5.656854                       0                       0                       0
154                      12                       8                2.828427                       0                       0                       0
155                      12                       8                       0                       0                       0                       0
156                      14                      10                5.656854                       0                       0                       0
157                      14                      10                2.828427                       0                       0                       0
158                      14                      10                       0                       0                       0                       0
159                      16                       8                5.656854                       0                       0                       0
160                      16                       8                2.828427                       0                       0                       0
161                      16                       8                       0                       0                       0                       0
162                      18                      10                5.656854                       0                       0                       0
163                      18                      10                2.828427                       0                       0                       0
164                      18                      10                       0                       0                       0                       0
165                      20                       8                5.656854                       0                       0                       0
166                      20                       8                2.828427                       0                       0                       0
167                      20                       8                       0                       0                       0                       0
168                      22                      10                5.656854                       0                       0                       0
169                      22                      10                2.828427                       0                       0                       0
170                      22                      10                       0                       0                       0                       0
171                      24                       8                5.656854                       0                       0                       0
172                      24                       8                2.828427                       0                       0                       0
173                      24                       8                       0                       0                       0                       0
174                      26                      10                5.656854                       0                       0                       0
175                      26                      10                2.828427                       0                       0                       0
176                      26                      10                       0                       0                       0                       0
177                      28                       8                5.656854                       0                       0                       0
178                      28                       8                2.828427                       0                       0                       0
179                      28                       8                       0                       0                       0                       0
180                      30                      10                5.656854                       0                       0                       0
181                      30                      10                2.828427                       0                       0                       0
182                      30                      10                       0                       0                       0                       0
183                       0                      12                5.656854                       0                       0                       0
184                       0                      12                2.828427                       0                       0                       0
185                       0                      12                       0                       0                       0                       0
186                       2                      14                5.656854                       0                       0                       0
187                       2                      14                2.828427                       0                       0                       0
188                       2                      14                       0                       0                       0                       0
189                       4                      12                5.656854                       0                       0                       0
190                       4                      12                2.828427                       0                       0                       0
191                       4                      12                       0                       0                       0                       0
192                       6                      14                5.656854                       0                       0                       0
193                       6                      14                2.828427                       0                       0                       0
194                       6                      14                       0                       0                       0                       0
195                       8                      12                5.656854                       0                       0                       0
196                       8                      12                2.828427                       0                       0                       0
197                       8                      12                       0                       0                       0                       0
198                      10                      14                5.656854                       0                       0                       0
199                      10                      14                2.828427                       0                       0                       0
200                      10                      14                       0                       0                       0                       0
201                      12                      12                5.656854                       0                       0                       0