ITEM: TIMESTEP
0
ITEM: NUMBER OF ATOMS
422
ITEM: BOX BOUNDS pp pp pp
0.0000000000000000e+00 3.2000000000000000e+01
0.0000000000000000e+00 3.2000000000000000e+01
0.0000000000000000e+00 3.2000000000000000e+01
ITEM: ATOMS id xu yu zu fx fy fz
1        13.7459321938386        15.9835208156773                 8.65685    -0.00285236202048589    0.000835047574037154      0.0177013503700606
2        19.4274848400711        15.9892262416344                 8.65685      0.0035766497039831       0.000150946636389    -0.00134772125395147
3         18.002344993917         15.987795112765                 8.65685    2.75476056408743e-05    0.000643729458043033      0.0189369486955039
4         15.171072038949        15.9849519429358                 8.65685     0.00502480376919989    0.000328651629181245     0.00212997420373366
5        17.3010751677692        14.7497248501637                 8.65685     -0.0279284776273824      0.0299554015578333      0.0978607208208224
6        15.8748269908674        14.7482926087119                 8.65685      0.0046325966283337     0.00616025507318148       0.010869705462483
7        15.8723418650276        17.2230222053877                 8.65685     0.00459387208572152    -0.00620891358038276      0.0103231460297077
8        17.2985900414216        17.2244544465825                 8.65685     -0.0272818552331354     -0.0301590375814254      0.0948663550952557
9        15.1177569207574        13.5484462411751                 8.65685      0.0342709313116962     -0.0140391540428036      0.0729716670041117
10        18.0605534827313        13.5514014038861                 8.65685     0.00411604614023041     -0.0305262213497256       0.178137515117169
11        15.1128635507729         18.421345651893                 8.65685      0.0349417021670038      0.0134094738979271      0.0750230607273261
12        18.0556601106552        18.4243008141789                 8.65685     0.00383591272262577      0.0292706824231928       0.180858510135097
13        13.7273112602357        13.5624445878976                 8.65685     -0.0178435877394696     -0.0286494762566523       0.170737455733577
14        13.7224488081137        18.4045547622743                 8.65685     -0.0184527645397223      0.0269091552647602       0.173753855832675
15         19.450968226168        13.5681922935721                 8.65685      0.0244074472257686    -0.00816639760660115      0.0391092462978042
16        19.4461057714963        18.4103024705805                 8.65685       0.024875405179854     0.00791362220468036       0.040117684020246
17         13.026795838139        17.1943199436399                 8.65685     -0.0274858732887865     -0.0228261525472964      0.0654048212506011
18        13.0292290587396        14.7712798150634                 8.65685     -0.0284583552585872      0.0226854582512395      0.0683803342920993
19        20.1466211966922        14.7784271122721                 8.65685    -0.00526451889450674     0.00630342886365564      0.0106083045915593
20        20.1441879750283        17.2014672429596                 8.65685    -0.00507364329207358    -0.00630741588458824      0.0101480940815588
21        21.5551350226241        14.8244350858224                 8.65685      -0.019810053151243      0.0367069589032127       0.110855028183565
22        21.5527913622507        17.1582882295758                 8.65685     -0.0195320750299522     -0.0367479450199182       0.108429954783449
23        11.6206256731611        14.8144588294926                 8.65685      0.0128684186557818     0.00851740599587375      0.0169403952107523
24        11.6182820131454        17.1483119722736                 8.65685      0.0124395760201936    -0.00856581290961108      0.0159775577107191
25        22.1867264607395        15.9919970781177                 8.65685    0.000768274751525936      0.0001672762633152    -0.00112848386893753
26        10.9866905744716        15.9807499786644                 8.65685     0.00193468232740419    0.000214102841902012    -0.00629433753812213
27         22.209196045824        18.1859221409264                 8.65685     0.00640163828913162     0.00568870220206742      0.0740037206443224
28        22.2136022867001        13.7981215696947                 8.65685      0.0065023487223076     -0.0061450417851127      0.0735390754212429
29        10.9598147507275        18.1746254872963                 8.65685      0.0167272209828122     0.00301791773534728      0.0357785385316344
30        10.9642209902605        13.7868249167297                 8.65685      0.0165495872515218    -0.00362885059306302      0.0350312181564846
31        13.1998668222426        12.6154548000933                 8.65685   -0.000988635199795613    -0.00196231198680221    -0.00665613558073706
32        13.1931035005993        19.3504833212092                 8.65685    -0.00107660858621891     0.00204090004263436    -0.00639835523650978
33        19.9803135329519        12.6222637346313                 8.65685    1.76166336363665e-05    1.42129993137337e-05     -0.0101256206817822
34        19.9735502071424         19.357292260389                 8.65685    2.54988438627231e-05   -8.45688096296359e-06     -0.0101058204535692
35        15.5622865728669        12.5689605638796                 8.65685    0.000341764282852531   -0.000265020410450511    -0.00973570610627275
36         15.555425108682        19.4017221461408                 8.65685    0.000387433885044972    0.000292930883067064    -0.00966363362527952
37        17.6179919240215        12.5710249097393                 8.65685   -0.000628545292701712    -0.00268949502663894    -0.00534591240774871
38         17.611130457531        19.4037864905846                 8.65685   -0.000677147897035447     0.00278542075504343    -0.00508183898500418
39                       0                       0                5.656854                       0                       0                       0
40                       0                       0                2.828427                       0                       0                       0
41                       0                       0                       0                       0                       0                       0
42                       2                       2                5.656854                       0                       0                       0
43                       2                       2                2.828427                       0                       0                       0
44                       2                       2                       0                       0                       0                       0
45                       4                       0                5.656854                       0                       0                       0
46                       4                       0                2.828427                       0                       0                       0
47                       4                       0                       0                       0                       0                       0
48                       6                       2                5.656854    1.18354567007884e-08    2.24063518590608e-08    5.77864017419525e-09
49                       6                       2                2.828427    3.06795615130894e-10    6.10740197407257e-10    3.12524278060278e-10
50                       6                       2                       0                       0                       0                       0
51                       8                       0                5.656854    4.05473579902343e-10    2.74509474181176e-11    2.72245784802757e-10
52                       8                       0                2.828427    3.23689397724594e-10    1.53437384096744e-11     3.6304792120307e-10
53                       8                       0                       0                       0                       0                       0
54                      10                       2                5.656854    6.85790974135891e-08    2.35159838164994e-07    6.19596466227676e-08
55                      10                       2                2.828427    2.43016397764232e-09    8.50069397829651e-09    4.35519129972124e-09
56                      10                       2                       0    9.52658888676164e-10    3.47320844968012e-09    2.68997719629773e-09
57                      12                       0                5.656854    1.24811168204581e-09     1.8000545361927e-10    1.83496606542005e-09
58                      12                       0                2.828427    1.43490413943157e-09    1.68769411250023e-10    3.71584434470731e-09
59                      12                       0                       0                       0                       0                       0
60                      14                       2                5.656854    6.10267986957989e-08    6.90654754135446e-07    1.85301514056941e-07
61                      14                       2                2.828427    2.16424054740658e-09    2.41141067896592e-08    1.25235406498295e-08
62                      14                       2                       0    9.49566349224758e-10    1.08292840340213e-08    8.45231847761373e-09
63                      16                       0                5.656854    2.62802906560647e-10    3.97795521514221e-10    3.29826770234475e-09
64                      16                       0                2.828427    3.39708140645967e-11    3.46007055097108e-10    8.15287345055622e-09
65                      16                       0                       0                       0                       0                       0
66                      18                       2                5.656854    -3.5334390118778e-08    7.72014782194873e-07    2.07274644012558e-07
67                      18                       2                2.828427   -1.26790266950423e-09    2.69219402267502e-08    1.40022383262368e-08
68                      18                       2                       0   -4.79819043280671e-10    1.13226748173774e-08    8.87786485517265e-09
69                      20                       0                5.656854    -1.2243514902204e-09    1.84158514722588e-10    2.45803449646422e-09
70                      20                       0                2.828427   -1.43001970189581e-09    2.06395800012136e-10    5.75553931187968e-09
71                      20                       0                       0                       0                       0                       0
72                      22                       2                5.656854   -8.27876072386089e-08    3.64349264909293e-07    9.65384042125366e-08
73                      22                       2                2.828427   -2.95461821091538e-09    1.30477230347395e-08     6.7129427125556e-09
74                      22                       2                       0   -1.24757086586135e-09    5.74799330964008e-09    4.44552801110581e-09
75                      24                       0                5.656854   -7.74641180179281e-10    4.02614853039245e-11    6.08764155915895e-10
76                      24                       0                2.828427   -4.46789993481235e-10    2.05584896966806e-11    6.47295754775351e-10
77                      24                       0                       0                       0                       0                       0
78                      26                       2                5.656854   -2.36538399813708e-08    5.17374760155032e-08    1.33918438633447e-08
79                      26                       2                2.828427   -8.41722597840351e-10    1.87527106999223e-09      9.494081724693e-10
80                      26                       2                       0   -1.56305194273449e-10    2.75814198256662e-10    2.24780913167664e-10
81                      28                       0                5.656854                       0                       0                       0
82                      28                       0                2.828427                       0                       0                       0
83                      28                       0                       0                       0                       0                       0
84                      30                       2                5.656854   -1.12634262247494e-09    1.57665032242438e-09    4.09431523420896e-10
85                      30                       2                2.828427                       0                       0                       0
86                      30                       2                       0                       0                       0                       0
87                       0                       4                5.656854   -2.01551322350272e-10    3.68987774770696e-10     1.1300479638199e-10
88                       0                       4                2.828427                       0                       0                       0
89                       0                       4                       0                       0                       0                       0
90                       2                       6                5.656854    5.09759208382813e-08     4.5550912765045e-08    1.69830356038614e-08
91                       2                       6                2.828427    1.85843102571908e-09    1.62072266250188e-09    1.16975330517886e-09
92                       2                       6                       0    6.60121167299322e-10    5.73418254544582e-10     6.3748650700869e-10
93                       4                       4                5.656854    6.91431239097623e-09    8.82428128375231e-09    2.68023726597086e-09
94                       4                       4                2.828427    7.93173265844438e-09    1.01366251527531e-08    6.03642623965668e-09
95                       4                       4                       0    7.59614236209189e-11    1.06748644886937e-10    9.44235760169574e-11
96                       6                       6                5.656854    2.14520329725418e-06    2.91989473590102e-06    1.10759644227521e-06
97                       6                       6                2.828427    6.21042302085488e-08    8.35816293689844e-08    6.11886995804383e-08
98                       6                       6                       0    2.52150647315835e-08    3.33286416155373e-08    3.63683555349206e-08
99                       8                       4                5.656854    9.84392172656751e-08    2.10630489621857e-07    6.55696039934484e-08
100                       8                       4                2.828427    1.02275511764725e-07    2.17712774354193e-07    1.31144011958822e-07
101                       8                       4                       0    1.45648335457466e-09    3.05439888164377e-09    2.74249589774259e-09
102                      10                       6                5.656854    1.83912852848142e-05    4.81910103847989e-05    1.92039373410094e-05
103                      10                       6                2.828427    3.97068477004769e-07    1.02249149757836e-06    7.80277795547282e-07
104                      10                       6                       0    1.24816071012722e-07     3.1438160092007e-07    3.50954281229508e-07
105                      12                       4                5.656854    2.69849655550055e-07     1.3339812411099e-06    4.29965105929719e-07
106                      12                       4                2.828427    2.44496874177152e-07    1.18319758581405e-06     7.3384918332339e-07
107                      12                       4                       0    3.09343832271612e-09    1.45925616706061e-08    1.33477533234851e-08
108                      14                       6                5.656854    1.64983116952839e-05    0.000171312750447209    7.10285059048702e-05
109                      14                       6                2.828427    3.30035631029229e-07    3.11213332314537e-06    2.45968846030396e-06
110                      14                       6                       0       9.73133485706e-08    8.32308613817538e-07    9.56815828394085e-07
111                      16                       4                5.656854    3.95833044778217e-08    2.32594448965005e-06    7.59758315640865e-07
112                      16                       4                2.828427    3.76703646430749e-08    1.99097421242116e-06    1.25102330743871e-06
113                      16                       4                       0    4.85747548195345e-10    2.38118530124459e-08    2.20055476488757e-08
114                      18                       6                5.656854    -8.2225513208664e-06     0.00018952640077621    7.89010479933757e-05
115                      18                       6                2.828427   -1.74201322812271e-07    3.43336447792542e-06    2.72443616561526e-06
116                      18                       6                       0   -5.39254361995396e-08    9.15010649902912e-07    1.05567444384768e-06
117                      20                       4                5.656854   -2.37123305003536e-07    1.75592579602594e-06    5.69275794610133e-07
118                      20                       4                2.828427   -2.14685182009901e-07    1.52437618141536e-06    9.50717276304528e-07
119                      20                       4                       0   -2.65739563686509e-09    1.84359942957976e-08    1.69272086019939e-08
120                      22                       6                5.656854   -2.38780780797085e-05    8.17793607069452e-05      3.310388396853e-05
121                      22                       6                2.828427   -4.82954546744056e-07    1.62157518288119e-06    1.25348689696342e-06
122                      22                       6                       0   -1.43308851468926e-07    4.69129885726659e-07    5.28894932491701e-07
123                      24                       4                5.656854   -1.59823485919702e-07    4.13613906957665e-07    1.30170486839233e-07
124                      24                       4                2.828427   -1.59179612948541e-07    4.08204886950841e-07    2.47809857558302e-07
125                      24                       4                       0   -2.09418670578995e-09    5.42177373571336e-09    4.88797562064804e-09
126                      26                       6                5.656854   -4.77662762775981e-06    7.70269380151433e-06    2.95277986109337e-06
127                      26                       6                2.828427   -1.26271825985627e-07    2.00335979087953e-07    1.48069438279736e-07
128                      26                       6                       0   -4.70098228564764e-08    7.39007378938728e-08    8.06527759131257e-08
129                      28                       4                5.656854   -1.71906859961843e-08    2.52002694386004e-08    7.68436759785511e-09
130                      28                       4                2.828427   -2.10247004813492e-08    3.05116956523871e-08    1.80666404986123e-08
131                      28                       4                       0   -2.03902173739704e-10    3.05840604680551e-10    2.78479162473046e-10
132                      30                       6                5.656854   -1.79026284300747e-07    1.73061411422594e-07    6.43792040287552e-08
133                      30                       6                2.828427   -6.27118509524262e-09     6.0468004269293e-09     4.3796218274512e-09
134                      30                       6                       0   -2.69972272039103e-09    2.61974370715203e-09    2.85825024415132e-09
135                       0                       8                5.656854   -1.72733321580183e-08    1.64509409499207e-08    7.87334993622447e-09
136                       0                       8                2.828427   -2.00311483333562e-08    1.93475533103056e-08    1.81190613862363e-08
137                       0                       8                       0   -2.38206513156156e-10    1.41129592566576e-10     2.1071267629083e-10
138                       2                      10                5.656854    1.50142694323914e-06    7.44581074036035e-07     5.0355096200494e-07
139                       2                      10                2.828427    4.60307216848957e-08    2.32324888221092e-08    3.00348865430891e-08
140                       2                      10                       0    1.99825713938754e-08    9.89312497108095e-09    1.85505699864483e-08
141                       4                       8                5.656854     5.5908775749309e-07    4.61501196472302e-07    2.25359055083256e-07
142                       4                       8                2.828427    5.01919737081049e-07    4.13448548016203e-07    3.87895958460723e-07
143                       4                       8                       0    6.03790655762877e-09    4.98218122124276e-09    6.90978463297557e-09
144                       6                      10                5.656854    0.000158702100710725    0.000122606396753022    8.79204642555058e-05
145                       6                      10                2.828427    2.52846574957859e-06    1.95135769922338e-06    2.63947937309666e-06
146                       6                      10                       0      6.092078779245e-07    4.69299596556541e-07    9.12776656755757e-07
147                       8                       8                5.656854    1.65853430577786e-05    2.50190574534675e-05    1.27583609944786e-05
148                       8                       8                2.828427    9.20654645880067e-06    1.34697077723987e-05    1.31358649246257e-05
149                       8                       8                       0    7.37557567812056e-08    1.04870406480524e-07    1.48975184707857e-07
150                      10                      10                5.656854     0.00238413753490338     0.00418369602634538     0.00324775327959062
151                      10                      10                2.828427    2.14487003517647e-05    3.56684984891501e-05    5.15780031946032e-05
152                      10                      10                       0    3.23993059012594e-06    5.09186078479577e-06    1.04485729015888e-05
153                      12                       8                5.656854    6.48984186639894e-05    0.000239787655613541    0.000133333261978122
154                      12                       8                2.828427     2.5055526586976e-05    8.96377101995253e-05    9.33289807454357e-05
155                      12                       8                       0    1.52586903167681e-07    5.20218510923723e-07    7.76304620887685e-07
156                      14                      10                5.656854     0.00177096216551074      0.0144374611058429      0.0125542958361575
157                      14                      10                2.828427    1.44433004392286e-05    0.000106187427226849    0.000168343634195291
158                      14                      10                       0    2.08618850250378e-06    1.27489883441704e-05    2.79095248699418e-05
159                      16                       8                5.656854    4.48435999056495e-06     0.00042233837878441    0.000242621973779291
160                      16                       8                2.828427    2.57769812512475e-06    0.000147475009107921    0.000158268408669993
161                      16                       8                       0    1.99347384862358e-08    8.13694675896067e-07    1.24604711379559e-06
162                      18                      10                5.656854   -0.000489259527624907      0.0153796721360919      0.0134958038249989
163                      18                      10                2.828427   -5.72012394464559e-06    0.000113531761651606    0.000181681282423213
164                      18                      10                       0   -1.03723169086762e-06    1.37091228076338e-05    3.02618729906044e-05
165                      20                       8                5.656854   -5.45459632183211e-05    0.000330141510701055    0.000186436257294999
166                      20                       8                2.828427   -2.09369870311437e-05    0.000116698214251847    0.000123217349777856
167                      20                       8                       0   -1.27356665041538e-07    6.51569881090073e-07    9.83373285927389e-07
168                      22                      10                5.656854     -0.0031984679299628     0.00737378063511777     0.00596864521823281
169                      22                      10                2.828427   -2.59295479140598e-05    5.76183861198627e-05    8.58514043111167e-05
170                      22                      10                       0   -3.62585022298726e-06    7.59318427874454e-06    1.59006739169061e-05
171                      24                       8                5.656854   -3.08484129747976e-05    5.79464971156807e-05    3.01673893957967e-05
172                      24                       8                2.828427   -1.52200548722711e-05    2.75812498304191e-05    2.73438242354069e-05
173                      24                       8                       0   -1.10249370636983e-07    1.92841163820073e-07    2.77406560348916e-07
174                      26                      10                5.656854    -0.00046180334603295    0.000439611709365564    0.000320179559698759
175                      26                      10                2.828427   -5.95139181274926e-06    5.56884169541448e-06    7.63640830907363e-06
176                      26                      10                       0   -1.20804026275453e-06    1.11174624733596e-06    2.18691772015352e-06
177                      28                       8                5.656854    -1.7878844583157e-06    1.71745756211458e-06    8.46307838144955e-07
178                      28                       8                2.828427   -1.38853043857909e-06    1.32440520015989e-06    1.25265034038401e-06
179                      28                       8                       0    -1.5152890626978e-08    1.43708507714642e-08    1.99037451836098e-08
180                      30                      10                5.656854   -6.61362792060018e-06    3.54460166887788e-06     2.4348065431103e-06
181                      30                      10                2.828427   -1.72615373883339e-07     9.3510015649869e-08    1.22133726599917e-07
182                      30                      10                       0   -6.46651612908788e-08    3.56047669588481e-08    6.73025546948147e-08
183                       0                      12                5.656854   -2.06946707642412e-07    8.44080040015458e-08    8.98737594906804e-08
184                       0                      12                2.828427   -2.02373472402549e-07    8.93723905239522e-08    1.80348984552216e-07
185                       0                      12                       0   -2.80832888355684e-09     1.2370354818644e-09    3.68401672769369e-09
186                       2                      14                5.656854    8.20162054835516e-06    1.16009139676591e-06    2.72975750674954e-06
187                       2                      14                2.828427    2.18939052515952e-07    3.28661456218167e-08    1.42433207088755e-07
188                       2                      14                       0    8.42571975159015e-08    1.28879985466817e-08    8.03303848038404e-08
189                       4                      12                5.656854    1.10675263350028e-05      3.935018775202e-06    4.53994723817697e-06
190                       4                      12                2.828427    6.96341992935841e-06    2.56837257303793e-06     5.4715275320653e-06
191                       4                      12                       0     6.2107619447981e-08    2.36689470202652e-08    7.12086487934061e-08
192                       6                      14                5.656854     0.00160209478001133    0.000305206816128859    0.000899709195301187
193                       6                      14                2.828427      1.757500237828e-05    3.77568848490297e-06    1.86652853979879e-05
194                       6                      14                       0    3.05178641356634e-06    7.09859448761585e-07    4.65177508828225e-06
195                       8                      12                5.656854    0.000881425860347282     0.00059305556585283    0.000768542512836637
196                       8                      12                2.828427    0.000210711950300671    0.000143379025687146    0.000331213214286609
197                       8                      12                       0     9.0168364020331e-07    6.13751894413686e-07     1.9529862430637e-06
198                      10                      14                5.656854      -0.013218597508242     0.00336874333562628     -0.0551727166251958
199                      10                      14                2.828427    0.000171626554783561    8.60944813880608e-05    0.000485400811632823
200                      10                      14                       0    1.64180835440642e-05    8.25636180938345e-06     5.8957870320591e-05
201                      12                      12                5.656854     0.00250882436164306     0.00531680549666326     0.00765119028578968