ITEM: TIMESTEP
0
ITEM: NUMBER OF ATOMS
422
ITEM: BOX BOUNDS pp pp pp
0.0000000000000000e+00 3.2000000000000000e+01
0.0000000000000000e+00 3.2000000000000000e+01
0.0000000000000000e+00 3.2000000000000000e+01
ITEM: ATOMS id xu yu zu fx fy fz
1        13.1109675803143         15.948556202153        8.62188538647573        3.10754833904871        2.43425785637837       0.489137324296734
2        18.8544263948374        16.0161677964007        8.68379155476626       -5.37970076269409       -4.45119943588656        -1.0153999755234
3        17.3790485671338        15.9644986859818        8.63355357321686        3.64020837063455        3.02371162890911       0.720617016635231
4        14.6015778553061        16.0154577592929        8.68735581635704       -5.87266941791368       -4.88586300784399       -1.12467273508296
5        16.7031966735979        14.7518463559924        8.65897150582867      -0.694054788109437       -1.33982470376585      -0.298412372157698
6        15.2802100475176         14.753675665362        8.66223305665013        1.95211133432855        2.14310340725997       0.468230646303661
7        15.2425332829617        17.1932136233219        8.62704141793416         4.6052375316891        5.58394719385751        1.09308198349156
8        16.6882183343744        17.2140827395354        8.64647829295286      -0.785443230815071      -0.711167849325118      -0.435179071612446
9        14.5565909804595        13.5872803008772        8.69568405970208       -2.59693129111513       -2.88185588619572      -0.592240660464208
10        17.4572467998682        13.5480947210229        8.65354331713683      -0.165952548120767       0.402939627521203      0.0118686914348548
11        14.5586550526105        18.4671371537306        8.70264150183754       -6.12577100588985       -6.21779644100586       -1.24637832643117
12        17.4596308010338        18.4282715045575         8.6608206903786        1.17652314950918        1.17571677544464       0.388171359129726
13        13.1446430463835        13.5797763740454        8.67418178614777        0.38773568912268     -0.0891102885322991      0.0685406382164284
14        13.0924897626685        18.3745957168291        8.62689095455484        4.11920102046228        3.38751341336116       0.991213946016604
15        18.8300777666023        13.5473018340063        8.63595954043426         1.3737965207745        1.27671349069755       0.185077381100962
16         18.886603682103        18.4508003811871        8.69734791060669       -2.84942295881769       -2.87341084210662      -0.630288633156086
17        12.4042260916132        17.1717501971142        8.63428025347423        1.07065681188438       0.351024179511383     0.00259043004233932
18        12.3978963726772         14.739947129001         8.6255173139376        4.00509484545185        3.79363067248822       0.675074253215926
19        19.5422327189222        14.7740386345021        8.65246152223001           1.44684386637        0.40785467663519       0.525570478754041
20        19.5167371264684        17.1740163943997        8.62939915144015        3.07099193000228         4.3074564332301       0.850446267184533
21        20.9769962986636        14.8462963618619        8.67871127603951       -3.78728870696073       -4.26226408516191      -0.518229864887455
22        20.9183657941578        17.1238626614829        8.62242443190707       -1.16122085204837       -1.65438504444132      -0.410562687187653
23        11.0660107441496         14.859843900481        8.70223507098846       -5.40799088239284       -5.57658640186412       -1.23717337477344
24        11.0346689585181        17.1646989176464        8.67323694537274       -2.87594792615339       -1.66705161990396       -0.61382185669034
25        21.5391945531297        15.9444651705079        8.60931809239018        3.32953174886263        5.00206010121205        0.39406165948652
26        10.3726494390865        15.9667088432793        8.64280886461486         3.0679750798081        4.33770468219699       0.986954399571371
27        21.5602137370464        18.1369398321487        8.60786769122235        1.25273831984184       0.954561489338466     -0.0539361598040923
28        21.6631550004349        13.8476742834295        8.70640271373481      -0.103193423864585      -0.641671067197445      0.0366226251143391
29        10.4040473904137        18.2188581269825        8.70108263968619       -0.17172139129667      -0.773266306025339     -0.0507662799019252
30         10.407873233884        13.8304771603533        8.70050224362353       0.247792354699488      0.0100303984915695       0.316304059294467
31        12.6420731708038        12.6576611486544        8.69905634856113      -0.363435420046137       -1.00778107901713     0.00376291673222646
32        12.6294733030655        19.3868531236755        8.69321980246623      -0.487826231553997        -1.2492589238082      -0.282879903720904
33        19.3696792550277        12.6116294567071        8.64621572207581     -0.0379280431384648       -0.15089697504441     -0.0520604581438129
34        19.4207856238153        19.4045276770618        8.70408541667287     -0.0257501829561716      -0.309747429908542      0.0300973407715402
35        14.9313635239164        12.5380375149291        8.62592695104955       0.517915988131849        1.38102706600719       0.289002487918205
36        14.9473109040987        19.3936079415575        8.64873579541671        1.37280415962691         1.8530939049321       0.118754062433963
37        17.0284302384487        12.5814632241665        8.66728831442721      -0.505797723991796      -0.454611760468554      0.0039212571161998
38        17.0464639383436        19.4391199713972        8.69218348081261      -0.346660272370015      -0.628597849969823     -0.0870988647238334
39                       0                       0                5.656854                       0                       0                       0
40                       0                       0                2.828427                       0                       0                       0
41                       0                       0                       0                       0                       0                       0
42                       2                       2                5.656854                       0                       0                       0
43                       2                       2                2.828427                       0                       0                       0
44                       2                       2                       0                       0                       0                       0
45                       4                       0                5.656854                       0                       0                       0
46                       4                       0                2.828427                       0                       0                       0
47                       4                       0                       0                       0                       0                       0
48                       6                       2                5.656854                       0                       0                       0
49                       6                       2                2.828427                       0                       0                       0
50                       6                       2                       0                       0                       0                       0
51                       8                       0                5.656854                       0                       0                       0
52                       8                       0                2.828427                       0                       0                       0
53                       8                       0                       0                       0                       0                       0
54                      10                       2                5.656854                       0                       0                       0
55                      10                       2                2.828427                       0                       0                       0
56                      10                       2                       0                       0                       0                       0
57                      12                       0                5.656854                       0                       0                       0
58                      12                       0                2.828427                       0                       0                       0
59                      12                       0                       0                       0                       0                       0
60                      14                       2                5.656854                       0                       0                       0
61                      14                       2                2.828427                       0                       0                       0
62                      14                       2                       0                       0                       0                       0
63                      16                       0                5.656854                       0                       0                       0
64                      16                       0                2.828427                       0                       0                       0
65                      16                       0                       0                       0                       0                       0
66                      18                       2                5.656854                       0                       0                       0
67                      18                       2                2.828427                       0                       0                       0
68                      18                       2                       0                       0                       0                       0
69                      20                       0                5.656854                       0                       0                       0
70                      20                       0                2.828427                       0                       0                       0
71                      20                       0                       0                       0                       0                       0
72                      22                       2                5.656854                       0                       0                       0
73                      22                       2                2.828427                       0                       0                       0
74                      22                       2                       0                       0                       0                       0
75                      24                       0                5.656854                       0                       0                       0
76                      24                       0                2.828427                       0                       0                       0
77                      24                       0                       0                       0                       0                       0
78                      26                       2                5.656854                       0                       0                       0
79                      26                       2                2.828427                       0                       0                       0
80                      26                       2                       0                       0                       0                       0
81                      28                       0                5.656854                       0                       0                       0
82                      28                       0                2.828427                       0                       0                       0
83                      28                       0                       0                       0                       0                       0
84                      30                       2                5.656854                       0                       0                       0
85                      30                       2                2.828427                       0                       0                       0
86                      30                       2                       0                       0                       0                       0
87                       0                       4                5.656854                       0                       0                       0
88                       0                       4                2.828427                       0                       0                       0
89                       0                       4                       0                       0                       0                       0
90                       2                       6                5.656854                       0                       0                       0
91                       2                       6                2.828427                       0                       0                       0
92                       2                       6                       0                       0                       0                       0
93                       4                       4                5.656854                       0                       0                       0
94                       4                       4                2.828427                       0                       0                       0
95                       4                       4                       0                       0                       0                       0
96                       6                       6                5.656854                       0                       0                       0
97                       6                       6                2.828427                       0                       0                       0
98                       6                       6                       0                       0                       0                       0
99                       8                       4                5.656854                       0                       0                       0
100                       8                       4                2.828427                       0                       0                       0
101                       8                       4                       0                       0                       0                       0
102                      10                       6                5.656854                       0                       0                       0
103                      10                       6                2.828427                       0                       0                       0
104                      10                       6                       0                       0                       0                       0
105                      12                       4                5.656854                       0                       0                       0
106                      12                       4                2.828427                       0                       0                       0
107                      12                       4                       0                       0                       0                       0
108                      14                       6                5.656854                       0                       0                       0
109                      14                       6                2.828427                       0                       0                       0
110                      14                       6                       0                       0                       0                       0
111                      16                       4                5.656854                       0                       0                       0
112                      16                       4                2.828427                       0                       0                       0
113                      16                       4                       0                       0                       0                       0
114                      18                       6                5.656854                       0                       0                       0
115                      18                       6                2.828427                       0                       0                       0
116                      18                       6                       0                       0                       0                       0
117                      20                       4                5.656854                       0                       0                       0
118                      20                       4                2.828427                       0                       0                       0
119                      20                       4                       0                       0                       0                       0
120                      22                       6                5.656854                       0                       0                       0
121                      22                       6                2.828427                       0                       0                       0
122                      22                       6                       0                       0                       0                       0
123                      24                       4                5.656854                       0                       0                       0
124                      24                       4                2.828427                       0                       0                       0
125                      24                       4                       0                       0                       0                       0
126                      26                       6                5.656854                       0                       0                       0
127                      26                       6                2.828427                       0                       0                       0
128                      26                       6                       0                       0                       0                       0
129                      28                       4                5.656854                       0                       0                       0
130                      28                       4                2.828427                       0                       0                       0
131                      28                       4                       0                       0                       0                       0
132                      30                       6                5.656854                       0                       0                       0
133                      30                       6                2.828427                       0                       0                       0
134                      30                       6                       0                       0                       0                       0
135                       0                       8                5.656854                       0                       0                       0
136                       0                       8                2.828427                       0                       0                       0
137                       0                       8                       0                       0                       0                       0
138                       2                      10                5.656854                       0                       0                       0
139                       2                      10                2.828427                       0                       0                       0
140                       2                      10                       0                       0                       0                       0
141                       4                       8                5.656854                       0                       0                       0
142                       4                       8                2.828427                       0                       0                       0
143                       4                       8                       0                       0                       0                       0
144                       6                      10                5.656854                       0                       0                       0
145                       6                      10                2.828427                       0                       0                       0
146                       6                      10                       0                       0                       0                       0
147                       8                       8                5.656854                       0                       0                       0
148                       8                       8                2.828427                       0                       0                       0
149                       8                       8                       0                       0                       0                       0
150                      10                      10                5.656854                       0                       0                       0
151                      10                      10                2.828427                       0                       0                       0
152                      10                      10                       0                       0                       0                       0
153                      12                       8                5.656854                       0                       0                       0
154                      12                       8                2.828427                       0                       0                       0
155                      12                       8                       0                       0                       0                       0
156                      14                      10                5.656854                       0                       0                       0
157                      14                      10                2.828427                       0                       0                       0
158                      14                      10                       0                       0                       0                       0
159                      16                       8                5.656854                       0                       0                       0
160                      16                       8                2.828427                       0                       0                       0
161                      16                       8                       0                       0                       0                       0
162                      18                      10                5.656854                       0                       0                       0
163                      18                      10                2.828427                       0                       0                       0
164                      18                      10                       0                       0                       0                       0
165                      20                       8                5.656854                       0                       0                       0
166                      20                       8                2.828427                       0                       0                       0
167                      20                       8                       0                       0                       0                       0
168                      22                      10                5.656854                       0                       0                       0
169                      22                      10                2.828427                       0                       0                       0
170                      22                      10                       0                       0                       0                       0
171                      24                       8                5.656854                       0                       0                       0
172                      24                       8                2.828427                       0                       0                       0
173                      24                       8                       0                       0                       0                       0
174                      26                      10                5.656854                       0                       0                       0
175                      26                      10                2.828427                       0                       0                       0
176                      26                      10                       0                       0                       0                       0
177                      28                       8                5.656854                       0                       0                       0
178                      28                       8                2.828427                       0                       0                       0
179                      28                       8                       0                       0                       0                       0
180                      30                      10                5.656854                       0                       0                       0
181                      30                      10                2.828427                       0                       0                       0
182                      30                      10                       0                       0                       0                       0
183                       0                      12                5.656854                       0                       0                       0
184                       0                      12                2.828427                       0                       0                       0
185                       0                      12                       0                       0                       0                       0
186                       2                      14                5.656854                       0                       0                       0
187                       2                      14                2.828427                       0                       0                       0
188                       2                      14                       0                       0                       0                       0
189                       4                      12                5.656854                       0                       0                       0
190                       4                      12                2.828427                       0                       0                       0
191                       4                      12                       0                       0                       0                       0
192                       6                      14                5.656854                       0                       0                       0
193                       6                      14                2.828427                       0                       0                       0
194                       6                      14                       0                       0                       0                       0
195                       8                      12                5.656854                       0                       0                       0
196                       8                      12                2.828427                       0                       0                       0
197                       8                      12                       0                       0                       0                       0
198                      10                      14                5.656854                       0                       0                       0
199                      10                      14                2.828427                       0                       0                       0
200                      10                      14                       0                       0                       0                       0
201                      12                      12                5.656854                       0                       0                       0