ITEM: TIMESTEP
0
ITEM: NUMBER OF ATOMS
422
ITEM: BOX BOUNDS ff ff ff
0.0000000000000000e+00 2.3200000000000000e+02
0.0000000000000000e+00 2.3200000000000000e+02
0.0000000000000000e+00 2.3200000000000000e+02
ITEM: ATOMS id xu yu zu fx fy fz
1        113.145932193839        115.983520815677              108.656854    -0.00411940225199703   -0.000766520665946444       0.007016130969728
2        118.827484840071        115.989226241634              108.656854     0.00134666765210781    -0.00091972265682462     0.00787296896653392
3        117.402344993917        115.987795112765              108.656854     -0.0006936620182936     0.00335437036699981      0.0132553255483081
4        114.571072038949        115.984951942936              108.656854     0.00650228938106462     0.00352436472625262      0.0139870085002731
5        116.701075167769        114.749724850164              108.656854     -0.0173948147741349      0.0163816653717848      0.0395170321754754
6        115.274826990867        114.748292608712              108.656854      0.0257070133380593      0.0169343392332957        0.04167788751978
7        115.272341865028        117.223022205388              108.656854       0.025067687342518    -0.00932923382088424      0.0401586563240316
8        116.698590041422        117.224454446583              108.656854      -0.016830653230564    -0.00871274562127913      0.0378084114184514
9        114.517756920757        113.548446241175              108.656854      0.0305206012807699     -0.0370545216868694       0.157155918372991
10        117.460553482731        113.551401403886              108.656854       -0.04988464937007     -0.0365751249867076       0.155962965290087
11        114.512863550773        118.421345651893              108.656854      0.0308632639369789      0.0169370452017385       0.162474504023345
12        117.455660110655        118.424300814179              108.656854       -0.05006079685162      0.0169122367416671       0.159470155840765
13        113.127311260236        113.562444587898              108.656854     -0.0290274971995032     -0.0301886248706725        0.10972348854699
14        113.122448808114        118.404554762274              108.656854     -0.0297917094364607      0.0130346508909307       0.112824945433306
15        118.850968226168        113.568192293572              108.656854      0.0131316588047764     -0.0304987934947185       0.114987984738356
16        118.846105771496         118.41030247058              108.656854      0.0140584907503683       0.014405883835806        0.11865749762621
17        112.426795838139         117.19431994364              108.656854    -0.00834542752084601     0.00197498183176031      0.0212049027073134
18         112.42922905874        114.771279815063              108.656854    -0.00897291756331059     0.00754668202321393      0.0226432497232626
19        119.546621196692        114.778427112272              108.656854      0.0194877483702169     0.00784432260972459      0.0222459638554324
20        119.544187975028         117.20146724296              108.656854      0.0190461361973898     0.00121572626245606      0.0213976046829818
21        120.955135022624        114.824435085822              108.656854       0.131748179382536       0.124319729121427      0.0349134738821867
22        120.952791362251        117.158288229576              108.656854       0.129862346191873     -0.0234414483947731      0.0301383400661219
23        111.020625673161        114.814458829493              108.656854     -0.0131706519179307       0.126269593337117      0.0590246205500236
24        111.018282013145        117.148311972274              108.656854     -0.0129011735792652     -0.0193144494825484      0.0537476457531572
25        121.586726460739        115.991997078118              108.656854     -0.0574077329088041     -0.0262146259450958     0.00342128523601327
26        110.386690574472        115.980749978664              108.656854    -0.00888231296875563     -0.0274608993346986      -0.010470952687614
27        121.609196045824        118.185922140926              108.656854      -0.174177755333319     -0.0448008438091197       0.184923787966748
28          121.6136022867        113.798121569695              108.656854      -0.180204199498589     -0.0794145660805825       0.174230834634522
29        110.359814750727        118.174625487296              108.656854      0.0262770317749505     -0.0548289680268051       0.155586373066353
30         110.36422099026         113.78682491673              108.656854      0.0296315170404112     -0.0800552555839452       0.142280900298951
31        112.599866822243        112.615454800093              108.656854      -0.016085260733752      0.0262363934387859      0.0126160884024471
32        112.593103500599        119.350483321209              108.656854     -0.0156882660684654      0.0158732607902343     0.00650475383028085
33        119.380313532952        112.622263734631              108.656854      0.0585267294473926       0.026936067975214     0.00648018043731636
34        119.373550207142        119.357292260389              108.656854      0.0562911498310452      0.0139475189025351    0.000619437860880886
35        114.962286572867         112.56896056388              108.656854      0.0047267964392958      0.0145924393974865   -0.000715547787168242
36        114.955425108682        119.401722146141              108.656854     0.00455118591748527      0.0130979677040408    -0.00470667602117414
37        117.017991924022        112.571024909739              108.656854      0.0220029229007611      0.0147682917103461     -0.0015697889243061
38        117.011130457531        119.403786490585              108.656854      0.0211373076049658      0.0125954077224194    -0.00533827905033129
39                     100                     100              105.656854       0.212167738895077       0.214010319554146      -0.975679438209843
40                     100                     100              102.828427       0.432015141453985       0.430401118383784   -0.000379835076248978
41                     100                     100                     100       0.212140748960005       0.213461623272229        0.97632161964974
42                     102                     102              105.656854      -0.344489603843852      -0.347639531568444      -0.277980553289813
43                     102                     102              102.828427      -0.050905706020355     -0.0482677250159258    0.000694624907707124
44                     102                     102                     100      -0.344475089779006      -0.346508398968196       0.276845934282664
45                     104                     100              105.656854      0.0957438579120243       0.960130136085127      -0.808936065901164
46                     104                     100              102.828427     -0.0637252949941372       0.726651126544989   -0.000280480514206537
47                     104                     100                     100      0.0961194520855556       0.959479210743122       0.809377332460911
48                     106                     102              105.656854      -0.149020808209185      -0.514998455771178      -0.381463698237424
49                     106                     102              102.828427       0.142132849164306      0.0666000612212469    0.000384685820842304
50                     106                     102                     100      -0.150055532755339      -0.513798055226173       0.380899136109325
51                     108                     100              105.656854       0.109456718288839        1.06008990459347      -0.801909069315663
52                     108                     100              102.828427      -0.111458102225837       0.639872857675118    0.000254556907932597
53                     108                     100                     100       0.110528610364311        1.06003291716343       0.801432544802511
54                     110                     102              105.656854      -0.142965483539119      -0.581805419318809      -0.373823416437218
55                     110                     102              102.828427       0.147771313565335        0.13474988189007   -0.000971669950311941
56                     110                     102                     100      -0.145407967879186        -0.5825699116796       0.375494413171043
57                     112                     100              105.656854       0.131592907079773        1.10832013846894      -0.810687764951449
58                     112                     100              102.828427      -0.135388959955112       0.589536429042091      0.0011796885527598
59                     112                     100                     100       0.132777963260658        1.10979513729163       0.808683234830125
60                     114                     102              105.656854      -0.163721987532097      -0.618554945973682      -0.361336777797966
61                     114                     102              102.828427       0.168670817554532       0.174642722147273     -0.0026761122321053
62                     114                     102                     100      -0.165219900455245      -0.622566762041566       0.365758813863164
63                     116                     100              105.656854       0.166589043785177         1.1437578287648      -0.821247013078597
64                     116                     100              102.828427      -0.170772203710081       0.552398989513397     0.00168847259846822
65                     116                     100                     100       0.166587666718015        1.14618092234837       0.818412936910628
66                     118                     102              105.656854      -0.209577433446263      -0.650755434860169       -0.34790446288944
67                     118                     102              102.828427       0.214419779201427       0.207889960507962     -0.0026734987948012
68                     118                     102                     100      -0.208074731361078      -0.654759951417987       0.352322286433865
69                     120                     100              105.656854       0.223286305254249        1.18240406421901      -0.835255517642744
70                     120                     100              102.828427      -0.228699249167942       0.513028464469776     0.00117868919458828
71                     120                     100                     100       0.222102327500162        1.18387583420374       0.833252607605558
72                     122                     102              105.656854      -0.288886497518575      -0.687976706731732      -0.330294469283987
73                     122                     102              102.828427       0.293662183736049       0.244315155547934   -0.000970646635996902
74                     122                     102                     100      -0.286451913723449      -0.688737400076254       0.331963711285178
75                     124                     100              105.656854       0.326420250208674         1.2367322163198      -0.852107217057557
76                     124                     100              102.828427      -0.323055676160351       0.459488943738924     0.00025585572845665
77                     124                     100                     100       0.325352211821636        1.23667681479727       0.851628652349655
78                     126                     102              105.656854      -0.461739145474968      -0.727794598433583      -0.332032117613353
79                     126                     102              102.828427       0.397279878409941       0.281774943270205    0.000379810977113105
80                     126                     102                     100      -0.460709573858787       -0.72660279207327       0.331475202701928
81                     128                     100              105.656854       0.708286176958097        1.34077534622929      -0.754736193673526
82                     128                     100              102.828427      -0.280944923424228       0.396033250627956   -0.000277137533669841
83                     128                     100                     100       0.707911781548049        1.34012940417639       0.755172036303607
84                     130                     102              105.656854       -1.34059635680151      -0.708810586723389       -0.75542145461687
85                     130                     102              102.828427      -0.395855849148935       0.281073978655488    0.000688633656062338
86                     130                     102                     100       -1.34060958947325      -0.707688020520494        0.75429649465323
87                     100                     104              105.656854       0.959119982017793       0.100092746870471      -0.808415903889312
88                     100                     104              102.828427       0.727655406461384     -0.0672700788454428    -0.00105815211868422
89                     100                     104                     100       0.958545516246129      0.0987528554782607       0.810166233053036
90                     102                     106              105.656854      -0.513845881449624      -0.157204971841073      -0.382817427096475
91                     102                     106              102.828427      0.0652487890767092        0.14825617494834     0.00219342627522723
92                     102                     106                     100      -0.512465268287289      -0.154162517292059       0.379295441576287
93                     104                     104              105.656854       0.247162914974543       0.253020786831834      -0.388488631784032
94                     104                     104              102.828427      -0.179930629099534      -0.184491158773108    -0.00134350382592277
95                     104                     104                     100       0.247285254483636        0.25050123249241       0.390613541566806
96                     106                     106              105.656854      -0.233020541969598      -0.245233334853563      -0.504746478955353
97                     106                     106              102.828427       0.225133608260952       0.233491874691908     0.00269428359211225
98                     106                     106                     100      -0.234015372942176      -0.239164893399329       0.500463064170634
99                     108                     104              105.656854       0.172804742995581       0.338697971279966      -0.375219266711519
100                     108                     104              102.828427       -0.17691369628611      -0.268775075382071   -0.000286126955390048
101                     108                     104                     100       0.175911047152406       0.336711316725041        0.37557127028908
102                     110                     106              105.656854      -0.180766767688897      -0.292995023550194      -0.490002213883665
103                     110                     106              102.828427        0.19146690898098       0.285485118559369    -0.00116001502104016
104                     110                     106                     100      -0.190509947226148      -0.291703010359779       0.491996105219812
105                     112                     104              105.656854       0.166400111407052       0.378988526570252      -0.390989466210333
106                     112                     104              102.828427      -0.173739761508008      -0.314216161008367     0.00315826333362424
107                     112                     104                     100       0.171498924686043       0.383272320766464       0.385753151714439
108                     114                     106              105.656854      -0.187428632261719      -0.306507466494534       -0.46657071711918
109                     114                     106              102.828427       0.197047858935498       0.311186091289332    -0.00883762817475545
110                     114                     106                     100      -0.194874277914155      -0.322039067388963       0.481744810268115
111                     116                     104              105.656854       0.198201768552012       0.404577094407109      -0.406541389381922
112                     116                     104              102.828427      -0.203404864919611      -0.343728532273552     0.00544399928475379
113                     116                     104                     100       0.198190386990447       0.413687702662667       0.397609376785256
114                     118                     106              105.656854      -0.241818946245688      -0.328763424702876      -0.450685941642871
115                     118                     106              102.828427       0.243788512397115       0.334103874855177     -0.0088177306170091
116                     118                     106                     100      -0.234334219605219      -0.344237652848412       0.465823373246632
117                     120                     104              105.656854       0.261012709929588       0.435668261217827      -0.421708303371899
118                     120                     104              102.828427      -0.265253476626918       -0.37272892033215     0.00314944982481447
119                     120                     104                     100       0.255920278280893       0.439927719094306       0.416486595678671
120                     122                     106              105.656854      -0.319447236755884      -0.362991564277872      -0.438231851114095
121                     122                     106              102.828427       0.320465396714707       0.357749711642993    -0.00115112507895114
122                     122                     106                     100      -0.309761665653136      -0.361677533426622       0.440211068330708
123                     124                     104              105.656854       0.368424802794382       0.463995769438861      -0.438544378042686
124                     124                     104              102.828427      -0.362750085154282      -0.397982521277889   -0.000281590569281525
125                     124                     104                     100       0.365337537652933       0.462019129357057       0.438889147208798
126                     126                     106              105.656854      -0.466208966671855       -0.36950807586294      -0.441651121471394
127                     126                     106              102.828427       0.401200939611544       0.361721774955072     0.00267295739522731
128                     126                     106                     100      -0.465225598797811      -0.363486192211986       0.437403586836365
129                     128                     104              105.656854       0.728007421940666       0.462507795338966      -0.330636924865827
130                     128                     104              102.828427      -0.282665973789447      -0.397172218316207      -0.001332055819551
131                     128                     104                     100       0.727884885319124       0.460007820713335       0.332743794379821
132                     130                     106              105.656854       -1.23655049246082      -0.328454198578076      -0.853649784931796
133                     130                     106              102.828427       -0.45879308053471       0.323989628474019     0.00217552575773887
134                     130                     106                     100        -1.2379184406089      -0.325436693800485       0.850156077603222
135                     100                     108              105.656854        1.06308336325546       0.116732950311195      -0.799921675284737
136                     100                     108              102.828427       0.638171091674192      -0.116980062532971    -0.00250425652057482
137                     100                     108                     100        1.06065611293893       0.114277244958988       0.803987582101005
138                     102                     110              105.656854      -0.590087024248074      -0.155778771278471      -0.379189845574907
139                     102                     110              102.828427       0.138768868348642       0.156419221283584     0.00542038755042469
140                     102                     110                     100      -0.583798456609208         -0.150573947815       0.370485449718516
141                     104                     108              105.656854       0.338350697701764       0.189775121443604      -0.370987432688073
142                     104                     108              102.828427       -0.26705039943634      -0.187853371295275    -0.00491423789406901
143                     104                     108                     100       0.334722997534443       0.182220514005239       0.378913869426267
144                     106                     110              105.656854      -0.298250117586368      -0.219279305664957      -0.506750808304995
145                     106                     110              102.828427       0.283130101238436       0.210475537481217      0.0114360058824643
146                     106                     110                     100      -0.288433920530139      -0.199421205430713       0.485268549060853
147                     108                     108              105.656854       0.221448458072502       0.251148760238717      -0.358536188967941
148                     108                     108              102.828427      -0.228536939858909      -0.244388697419878    -0.00501584835588774
149                     108                     108                     100       0.227816504298873       0.235825280974301        0.36813185977322
150                     110                     110              105.656854      -0.178747143790104       -0.25737853490939       -0.49081724510935
151                     110                     110              102.828427       0.215361004162623       0.243104497910778     0.00484126960618262
152                     110                     110                     100      -0.221458494724591      -0.232489522728993        0.47527073124748
153                     112                     108              105.656854       0.174803304493997       0.256153518874866      -0.393638982948702
154                     112                     108              102.828427      -0.197626832150063      -0.269113134479586     0.00839190948440905
155                     112                     108                     100       0.200985696591668       0.267189095088135       0.377878948111184
156                     114                     110              105.656854      -0.177541779770154      -0.184168688723381      -0.384450699193691
157                     114                     110              102.828427       0.208629916723041        0.24617949554031     -0.0272132087559686
158                     114                     110                     100        -0.2131920444628       -0.24918274118749       0.470111140302555
159                     116                     108              105.656854       0.220273227559677       0.249591919990077      -0.425918544631629
160                     116                     108              102.828427      -0.226118196658087      -0.281549818909923      0.0194021363947033
161                     116                     108                     100       0.220189766187795       0.285910704673086       0.388707195351798
162                     118                     110              105.656854      -0.285509456513097      -0.195447419871959      -0.367433035016562
163                     118                     110              102.828427       0.266807806099555       0.257542275455453     -0.0271051370283047
164                     118                     110                     100      -0.249509658137389       -0.26015675643595       0.452728733322233
165                     120                     108              105.656854       0.300194827238833       0.289933752385857      -0.428330871325427
166                     120                     108              102.828427      -0.290568653962828      -0.303812977833361     0.00832900944775131
167                     120                     108                     100       0.274069152956766       0.300785868654359       0.412706114765138
168                     122                     110              105.656854      -0.357443525196762      -0.291044528887541      -0.434469067555184
169                     122                     110              102.828427       0.334205616987092       0.277704159805309     0.00489298382626922
170                     122                     110                     100       -0.31529269378917      -0.265988986643474       0.418828839160137
171                     124                     108              105.656854       0.375376095793165       0.320681376003236      -0.430939560222235
172                     124                     108              102.828427      -0.368400832825333      -0.316277768376424    -0.00498933428636746
173                     124                     108                     100       0.369100376660756       0.305456817646513       0.440459780199537
174                     126                     110              105.656854      -0.437237721967384        -0.2750151449336      -0.435238438079831
175                     126                     110              102.828427       0.380501380105882       0.268177308686414      0.0113496377312315
176                     126                     110                     100      -0.446993267275038      -0.255331597115337       0.413972617280009
177                     128                     108              105.656854       0.688184510925909       0.293841390379279      -0.326296975929609
178                     128                     108              102.828427      -0.246724485875895      -0.295358941232587    -0.00487366594428607
179                     128                     108                     100       0.691781058211226       0.286353292772563       0.334154661042742
180                     130                     110              105.656854       -1.17941668722605      -0.228110069179236      -0.839155740922438
181                     130                     110              102.828427       -0.51287126339074       0.231160934322643     0.00537591984750108
182                     130                     110                     100       -1.18564740535934       -0.22294794311957       0.830523861566137
183                     100                     112              105.656854        1.11855568876557       0.138176993567304      -0.806365384475743
184                     100                     112              102.828427       0.583282204839144      -0.140143992572832    -0.00447992573896535
185                     100                     112                     100        1.11282330565525       0.135814007065823       0.813577536979986
186                     102                     114              105.656854      -0.639377563838868      -0.170501973990262      -0.371590904992684
187                     102                     114              102.828427       0.185272572751959       0.173072672825813       0.008797757727274
188                     102                     114                     100      -0.626701327057114      -0.167719960396151       0.357344550651636
189                     104                     112              105.656854       0.401859943106263       0.187627052326159      -0.374477765486005
190                     104                     112              102.828427      -0.322380131361582      -0.185733671497691     -0.0119824729539094
191                     104                     112                     100       0.384953435981992       0.177607392856621       0.395172756107824
192                     106                     114              105.656854      -0.356610953869415      -0.208802913776777      -0.517615772507357
193                     106                     114              102.828427        0.32210556878895       0.207929923790224      0.0235542474961498
194                     106                     114                     100      -0.322558237712864      -0.199712022928791       0.466404316554055
195                     108                     112              105.656854       0.282783355823412       0.257453535882611      -0.307463179941489
196                     108                     112              102.828427      -0.262117133476155      -0.223442130292703     -0.0218670023453617
197                     108                     112                     100       0.261230185637767       0.211027476133956       0.389368515182664
198                     110                     114              105.656854       -0.15408222776074      -0.196741466714376        -0.7411770789943
199                     110                     114              102.828427       0.223352324187811       0.226040765355785       0.016167467212881
200                     110                     114                     100      -0.239332988297417      -0.220109667492948        0.45644980882258
201                     112                     112              105.656854      0.0953740044405633       0.229299868005078       -0.43062874031997