ITEM: TIMESTEP
0
ITEM: NUMBER OF ATOMS
422
ITEM: BOX BOUNDS pp pp pp
0.0000000000000000e+00 3.2000000000000000e+01
0.0000000000000000e+00 3.2000000000000000e+01
0.0000000000000000e+00 3.2000000000000000e+01
ITEM: ATOMS id xu yu zu fx fy fz
1        13.1535831851437        15.9911718069824        8.66450099130516    -0.00579015646619059    0.000288698233846511     0.00720657213578934
2        18.7821798453595        15.9439212469227        8.61154500528834     0.00692502809982812     0.00234096054444787      0.0146451250697293
3        17.4253661299963        16.0108162488443        8.67987113607935    -0.00494002131189294   -0.000429248309776651      0.0105350764421684
4         14.537063537327        15.9509434413138        8.62284149837801     0.00578691541643238     0.00242373754014493      0.0182749354023817
5         16.750060507332        14.7987101897265        8.70583533956279     -0.0198969967948995      0.0131035643727347       0.031575626170411
6        15.2477682207582        14.7212338386027        8.62979122989077      0.0279367536317526      0.0166567546331785      0.0515330884336936
7        15.2861029416509         17.236783282011        8.67061107662331      0.0224687027708642     -0.0138655447175094       0.037160436396052
8        16.7006497867636        17.2265141919245        8.65890974534202     -0.0228386482646606     -0.0141827266978856      0.0379295606170818
9        14.5672047419583         13.597894062376        8.70629782120091      0.0270756142754137     -0.0191807583502737       0.120882375318791
10        17.4422957142666        13.5331436354213        8.63859223153526     -0.0330447365581756     -0.0276529075272723       0.152254308095479
11        14.5194679143198        18.4279500154399        8.66345436354691      0.0295181704568591      0.0243088150711681       0.146029621182893
12        17.4322803252191        18.4009210287428        8.63347021456386     -0.0352755996720375      0.0248965568679349       0.160303445825011
13        13.1198235970546        13.5549569247165        8.64936233681887     -0.0378768463735712     -0.0191724095594528       0.106677538997421
14         13.123148897747        18.4052548519077        8.65755008963337     -0.0375788295712819      0.0173834290951791       0.106239997296574
15        18.8754732759532        13.5926973433573        8.68135504978519      0.0344840825311726     -0.0160552523967539      0.0965749400782438
16        18.8335705239073        18.3977672229914        8.64431475241099      0.0394073153620932      0.0188082638363262       0.118523958121628
17        12.4201304517021         17.187654557203        8.65018461356309     -0.0145225790253225    -0.00929436146363912      0.0197948138276701
18         12.468251651723        14.8103024080468         8.6958725929834     -0.0137688018590897     0.00861269778619389      0.0160537393400055
19        19.5637187862508        14.7955247018307         8.6739475895586      0.0141169824433498     0.00878549364587653      0.0178399862509424
20        19.5309747369459        17.1882540048772        8.64363676191765      0.0164518886871168     -0.0102946246231453      0.0233292887129643
21        20.9286217714832        14.7979218346815         8.6303367488591     -0.0293306621445551      0.0220211431703942      0.0638264733525819
22        20.9263328575299        17.1318297248549        8.63039149527912     -0.0271948502070643     -0.0221495832777153      0.0582301104368989
23         10.987467842726        14.7813009990574        8.62369216956487      0.0315002471836461      0.0250200690014257      0.0760212861590894
24        10.9864820352611        17.1165119943893        8.62505002211569      0.0281521512707976     -0.0252789788150936      0.0667885728120042
25        21.5615103530176        15.9667809703958         8.6316338922781    -0.00176245563242806    0.000685235490319315    -0.00105077485216223
26        10.4089283093415        16.0029877135343        8.67908773486985     0.00139540240113034   -5.29304671989114e-05    -0.00309124036657478
27        21.6379827297227         18.214708824825        8.68563668389869    -0.00932595597084545      0.0055241192362108      0.0605380919119989
28        21.5769936835995        13.7615129665941        8.62024139689934     -0.0134234124220458    -0.00755618772411627      0.0761752400291208
29        10.3995064198101         18.214317156379        8.69654166908265     0.00969832240234079     0.00519364717572936      0.0564085094356838
30        10.3847847253832        13.8073886518524        8.67741373512267      0.0101752569274323    -0.00508516029558724      0.0623248354829748
31        12.6045157843636        12.6201037622143        8.66149896212099   -0.000569069269317147    -0.00055610334166843    -0.00920439182221009
32        12.5938317024515        19.3512115230615        8.65757820185222   -0.000623576236569021    0.000576240419394747    -0.00913007525856003
33        19.3873644804331        12.6293146821126        8.66390094748126    0.000586779082390293   -0.000572618592137102    -0.00916187598606102
34        19.4220741482382        19.4058162014848        8.70537394109578    0.000383805371002303    0.000372484259211897     -0.0095037714440994
35        14.9281241655728        12.5347981565855        8.62268759270593    0.000912590617844959      -0.001662531382716    -0.00745871696038742
36        14.9392643917212          19.38556142918        8.64068928303918     0.00103135630255209     0.00172182194998923    -0.00714958097572124
37        17.0379934970352         12.591026482753        8.67685157301369   -0.000795008066581275    -0.00136540498448107    -0.00780309781361475
38        17.0144544096424         19.407110442696        8.66017395211142    -0.00085999975819728      0.0014178730533946    -0.00773371546159237
39                       0                       0                5.656854                       0                       0                       0
40                       0                       0                2.828427                       0                       0                       0
41                       0                       0                       0                       0                       0                       0
42                       2                       2                5.656854    5.28947010371727e-10    7.44859067017845e-10    1.90549440906408e-10
43                       2                       2                2.828427                       0                       0                       0
44                       2                       2                       0                       0                       0                       0
45                       4                       0                5.656854                       0                       0                       0
46                       4                       0                2.828427                       0                       0                       0
47                       4                       0                       0                       0                       0                       0
48                       6                       2                5.656854    1.75574810925834e-08    3.54051519666519e-08    9.14885365777378e-09
49                       6                       2                2.828427    6.55346920282632e-10     1.3361646803643e-09    6.74026614777601e-10
50                       6                       2                       0                       0                       0                       0
51                       8                       0                5.656854    6.75709057191895e-10    3.06942690384501e-11    4.73383464727131e-10
52                       8                       0                2.828427    3.89231569342111e-10    1.53989517032942e-11    4.93485076959016e-10
53                       8                       0                       0                       0                       0                       0
54                      10                       2                5.656854    7.73258305819703e-08    2.97261172787297e-07    7.86622119815074e-08
55                      10                       2                2.828427    2.79272408053644e-09    1.07783747541447e-08    5.53450599832909e-09
56                      10                       2                       0    9.92217247046249e-10    4.17811930381537e-09    3.24735490909141e-09
57                      12                       0                5.656854    1.35557350888595e-09    1.70563085728352e-10    2.20314689129789e-09
58                      12                       0                2.828427    1.50080288132611e-09   -8.13954717847513e-10    4.73369861027431e-09
59                      12                       0                       0                       0                       0                       0
60                      14                       2                5.656854    4.76854966654102e-08    7.34977719156379e-07    1.97492304283844e-07
61                      14                       2                2.828427    1.62549501675899e-09    2.54265147273193e-08    1.32411041604824e-08
62                      14                       2                       0    8.00220761151088e-10    1.08529524688304e-08    8.51288543209659e-09
63                      16                       0                5.656854   -1.14150550330296e-11    2.46792091149255e-10    3.28907353434803e-09
64                      16                       0                2.828427   -3.60147308636475e-12    2.65676876556737e-10    7.21710629311015e-09
65                      16                       0                       0                       0                       0                       0
66                      18                       2                5.656854    -4.8703983274918e-08    7.28288163944635e-07    1.95753461010295e-07
67                      18                       2                2.828427    -1.6643304963327e-09    2.52612568833276e-08     1.3141182772808e-08
68                      18                       2                       0   -8.12077764929205e-10    1.07120583588107e-08    8.39717498659359e-09
69                      20                       0                5.656854   -1.34346116054906e-09    9.04530459332385e-11     2.2010557802049e-09
70                      20                       0                2.828427   -1.49947448502003e-09    1.15672153396874e-09    4.69315017920646e-09
71                      20                       0                       0                       0                       0                       0
72                      22                       2                5.656854   -7.58932028799387e-08    2.94865165723945e-07    7.78568844957159e-08
73                      22                       2                2.828427     -2.679049236768e-09    1.05701806290546e-08    5.42517821887189e-09
74                      22                       2                       0   -9.36461183345123e-10    4.09669422926566e-09      3.176834689644e-09
75                      24                       0                5.656854   -6.73744732446286e-10    4.07703356385313e-13    4.77374561373218e-10
76                      24                       0                2.828427   -3.95498318093884e-10   -1.93918502646245e-11    5.04092771894504e-10
77                      24                       0                       0                       0                       0                       0
78                      26                       2                5.656854   -1.76464181492452e-08    3.56770850380958e-08    9.16329201254943e-09
79                      26                       2                2.828427   -6.16699257354033e-10    1.29738986319494e-09    6.50819972110739e-10
80                      26                       2                       0                       0                       0                       0
81                      28                       0                5.656854                       0                       0                       0
82                      28                       0                2.828427                       0                       0                       0
83                      28                       0                       0                       0                       0                       0
84                      30                       2                5.656854   -5.53826467165675e-10     7.7333874986285e-10    1.94847577126049e-10
85                      30                       2                2.828427                       0                       0                       0
86                      30                       2                       0                       0                       0                       0
87                       0                       4                5.656854    -4.3760910963343e-12    2.98596559329486e-10    9.12995610684082e-11
88                       0                       4                2.828427                       0                       0                       0
89                       0                       4                       0                       0                       0                       0
90                       2                       6                5.656854    9.77883700983511e-08    8.97884193154754e-08     3.3412455267427e-08
91                       2                       6                2.828427    3.65526756108818e-09    3.31355565991984e-09    2.39344237663958e-09
92                       2                       6                       0    1.02415372800601e-09    9.53628084163019e-10     1.0598966959012e-09
93                       4                       4                5.656854    1.09740557345872e-08    1.49671211687622e-08    4.56560681083749e-09
94                       4                       4                2.828427    1.32896016990735e-08    1.83342328949647e-08    1.07991477061784e-08
95                       4                       4                       0    1.41831329585598e-10    1.96079506693246e-10    1.78389961889325e-10
96                       6                       6                5.656854    3.24554917049434e-06    4.79786349137781e-06    1.83049184504507e-06
97                       6                       6                2.828427    8.97237766302089e-08     1.3086609160643e-07    9.61897688436277e-08
98                       6                       6                       0    3.47933095896484e-08    5.02782668769579e-08    5.47410271147582e-08
99                       8                       4                5.656854    1.27628471300527e-07    2.98753620888506e-07    9.36569277858828e-08
100                       8                       4                2.828427    1.29642347394674e-07    3.01273280936164e-07    1.82311981855369e-07
101                       8                       4                       0    1.74109539559365e-09    4.04217970585276e-09    3.64373073272222e-09
102                      10                       6                5.656854    2.14704542808659e-05    6.36917994776369e-05    2.56339215195431e-05
103                      10                       6                2.828427     4.4581019355879e-07    1.30190634906384e-06    1.00097429006732e-06
104                      10                       6                       0    1.35024432909108e-07    3.86519694386749e-07    4.34035461404376e-07
105                      12                       4                5.656854    2.59765004981702e-07    1.55121904933785e-06    5.02499425924763e-07
106                      12                       4                2.828427    2.33627616233714e-07    1.35516577621807e-06    8.44232207432685e-07
107                      12                       4                       0    2.92982639280498e-09    1.65615646017923e-08    1.51816312266222e-08
108                      14                       6                5.656854    1.20113126139816e-05    0.000181718128476478    7.56862311951369e-05
109                      14                       6                2.828427    2.46542377693271e-07     3.2787774864115e-06    2.60201386537423e-06
110                      14                       6                       0    7.40292296292147e-08     8.7153826812311e-07     1.0052934144822e-06
111                      16                       4                5.656854    -4.9881057243698e-09    2.32405187488629e-06     7.6016753738966e-07
112                      16                       4                2.828427   -3.34235141295956e-09    1.98738814842823e-06    1.24985288103834e-06
113                      16                       4                       0    9.21862489044039e-12    2.37075657650309e-08    2.19298500509188e-08
114                      18                       6                5.656854   -1.22240669184758e-05    0.000179636586223221    7.46784018750374e-05
115                      18                       6                2.828427   -2.49115255659212e-07    3.25905969811776e-06    2.58060759517998e-06
116                      18                       6                       0   -7.41359407382597e-08    8.70171121679473e-07    1.00189540668963e-06
117                      20                       4                5.656854   -2.54828542873271e-07    1.53566133339441e-06    4.96429206797477e-07
118                      20                       4                2.828427   -2.29939064574737e-07    1.34703562877832e-06    8.37168183030967e-07
119                      20                       4                       0   -2.86220859842622e-09    1.63775291529575e-08    1.50100149454705e-08
120                      22                       6                5.656854   -2.12003446263344e-05    6.38629036649163e-05    2.55877051030752e-05
121                      22                       6                2.828427   -4.41854496277299e-07    1.31008949655288e-06    1.00403027672376e-06
122                      22                       6                       0   -1.34387469613765e-07    3.89700220824362e-07    4.36531946658327e-07
123                      24                       4                5.656854   -1.27561834881887e-07      3.007421142945e-07    9.38004551181098e-08
124                      24                       4                2.828427   -1.29753405391972e-07    3.04159685660768e-07    1.83548155614464e-07
125                      24                       4                       0   -1.77076917911173e-09    4.19496691139346e-09    3.75502047043625e-09
126                      26                       6                5.656854   -3.28663670309001e-06    4.84680769709152e-06    1.83794651714471e-06
127                      26                       6                2.828427   -9.11215655425964e-08    1.32816033290404e-07    9.74720453218595e-08
128                      26                       6                       0   -3.53958670923575e-08    5.11259102358602e-08    5.56386321842041e-08
129                      28                       4                5.656854   -1.10768436129498e-08    1.50581736177228e-08    4.56043414957873e-09
130                      28                       4                2.828427   -1.34726129471292e-08    1.85506451342541e-08    1.09010589093464e-08
131                      28                       4                       0   -1.49709674712081e-10     2.0676588241863e-10     1.8744868687277e-10
132                      30                       6                5.656854   -9.76236699968824e-08    8.89329301169763e-08     3.2883672000634e-08
133                      30                       6                2.828427   -3.68276458207398e-09    3.31719901402338e-09    2.39315649278696e-09
134                      30                       6                       0    -1.0902592292232e-09    1.00463668513321e-09     1.1157889936283e-09
135                       0                       8                5.656854    2.21835487450151e-10    1.26406307586666e-08    5.99760113642211e-09
136                       0                       8                2.828427    1.09404123024936e-10    1.44156620409448e-08    1.34834951965402e-08
137                       0                       8                       0   -5.54210367737499e-12    1.45802487268223e-10     2.1800455708591e-10
138                       2                      10                5.656854    3.20595244679716e-06    1.63102568896259e-06    1.10951216844648e-06
139                       2                      10                2.828427    9.09061092760134e-08    4.67995743523472e-08    6.06526382159686e-08
140                       2                      10                       0    3.68362613470673e-08    1.90439168524686e-08    3.60652043453575e-08
141                       4                       8                5.656854    1.01169355062718e-06    9.00086527915226e-07    4.41191131537075e-07
142                       4                       8                2.828427    8.45454068747419e-07    7.49251461116226e-07    7.04337187607506e-07
143                       4                       8                       0    9.89141894349232e-09    8.72316948573849e-09    1.20474734046895e-08
144                       6                      10                5.656854    0.000276602200013117    0.000236817074064337    0.000170665944866629
145                       6                      10                2.828427    3.96476310130794e-06    3.36905075895359e-06    4.57034518084936e-06
146                       6                      10                       0    8.77191767519806e-07    7.38920870227207e-07    1.43989443035182e-06
147                       8                       8                5.656854    2.30447159345825e-05    3.86988261210324e-05     1.9930223157198e-05
148                       8                       8                2.828427    1.20433640043642e-05     1.9575224501784e-05     1.9219841590952e-05
149                       8                       8                       0    9.14360225990785e-08    1.44161854832501e-07    2.05807783798713e-07
150                      10                      10                5.656854     0.00283346103200928     0.00568121510736627      0.0045023498633014
151                      10                      10                2.828427    2.39993314262642e-05     4.6120956597319e-05    6.75786412432123e-05
152                      10                      10                       0    3.47493806014635e-06    6.30848929678087e-06    1.30513326129102e-05
153                      12                       8                5.656854    6.20715649567256e-05    0.000286206304448009    0.000160991670081797
154                      12                       8                2.828427     2.3451622046627e-05    0.000103174378392351    0.000108421655821621
155                      12                       8                       0    1.41065093637137e-07     5.8484865861116e-07    8.78508090846909e-07
156                      14                      10                5.656854     0.00099194794661355      0.0149446405396058      0.0131079023336221
157                      14                      10                2.828427    9.48020003414624e-06    0.000109578030509854    0.000174989525344933
158                      14                      10                       0    1.51059408213885e-06    1.31951439913401e-05    2.90085591403695e-05
159                      16                       8                5.656854   -1.40833893319441e-06    0.000419589023669565    0.000241576770615445
160                      16                       8                2.828427   -2.44950439494556e-07    0.000146465566526387    0.000157394135057598
161                      16                       8                       0     -3.512007455654e-10    8.09169638939121e-07    1.23951955825253e-06
162                      18                      10                5.656854   -0.000999057093265994      0.0149388551672465      0.0130673285008266
163                      18                      10                2.828427   -9.39271625628952e-06    0.000109774110548293    0.000174575334948005
164                      18                      10                       0   -1.47907683332069e-06    1.32462285560113e-05    2.90493252220789e-05
165                      20                       8                5.656854   -6.03380802740741e-05    0.000284432786184688    0.000159285760927654
166                      20                       8                2.828427   -2.29981005507774e-05    0.000103287720958625    0.000108092566001785
167                      20                       8                       0   -1.39378562721278e-07    5.87962538816581e-07    8.80463701794413e-07
168                      22                      10                5.656854    -0.00283763107487035     0.00576170804097704     0.00454400575237748
169                      22                      10                2.828427   -2.41023356978736e-05    4.69480243702886e-05    6.86524241320524e-05
170                      22                      10                       0   -3.49541443919496e-06    6.39982511169642e-06    1.32264648811619e-05
171                      24                       8                5.656854   -2.34042588619254e-05    3.93778922320683e-05    2.01745768987795e-05
172                      24                       8                2.828427   -1.22237334529083e-05    1.99359597966046e-05    1.95508021946368e-05
173                      24                       8                       0   -9.25868299510645e-08    1.46404164469499e-07    2.08991469923371e-07
174                      26                      10                5.656854   -0.000279261107178104    0.000235496216946127    0.000169563040120788
175                      26                      10                2.828427    -4.0270616105089e-06    3.38065620048746e-06    4.60620605937463e-06
176                      26                      10                       0   -8.90440135283756e-07     7.4307896279282e-07    1.45475686119986e-06
177                      28                       8                5.656854   -1.01416755895651e-06    8.93092847166918e-07    4.35717262727684e-07
178                      28                       8                2.828427   -8.54385363500912e-07    7.50508514160756e-07    7.06336159170641e-07
179                      28                       8                       0   -1.00364221396827e-08    8.78324311470107e-09    1.21591146982093e-08
180                      30                      10                5.656854   -3.13482109512193e-06    1.57462824034214e-06    1.06874134523099e-06
181                      30                      10                2.828427   -9.00832293444685e-08    4.57871003106106e-08    5.95709587701109e-08
182                      30                      10                       0   -3.67859260845096e-08    1.87992631215963e-08    3.57894100202551e-08
183                       0                      12                5.656854    4.72723755632266e-09     6.0055861978525e-08    6.31618773638339e-08
184                       0                      12                2.828427     3.5553535154995e-09     6.7710966659195e-08     1.3544348407608e-07
185                       0                      12                       0    3.70494953887626e-11    1.01585837147758e-09    2.90036092454691e-09
186                       2                      14                5.656854    1.88924179314354e-05    2.70767526426738e-06     6.5370993730475e-06
187                       2                      14                2.828427    4.58128127955735e-07    6.96057988528886e-08    3.06393398699839e-07
188                       2                      14                       0    1.59519499077522e-07    2.53987454160777e-08    1.55809029732192e-07
189                       4                      12                5.656854     2.3298734940885e-05    8.90288054413031e-06     1.0391860380745e-05
190                       4                      12                2.828427    1.29127159610296e-05    5.12636269441803e-06    1.09849218180298e-05
191                       4                      12                       0    1.02771138238492e-07    4.21236810150645e-08    1.27149286232552e-07
192                       6                      14                5.656854     0.00314931419034439    0.000655156457043734     0.00197949466022304
193                       6                      14                2.828427    2.95135224756519e-05    6.94400526661868e-06    3.48412856518649e-05
194                       6                      14                       0    4.52197486825246e-06    1.15227112618374e-06    7.60480404349274e-06
195                       8                      12                5.656854      0.0013129369491894     0.00103513941340426     0.00134159035209769
196                       8                      12                2.828427    0.000285400043517075    0.000222674159652886    0.000516833979369067
197                       8                      12                       0    1.13062239431938e-06    8.69197451991709e-07    2.77859464240751e-06
198                      10                      14                5.656854     -0.0230538079558763     -0.0116438876942867       -0.14459581422459
199                      10                      14                2.828427    0.000180985933047368    0.000111658630544644    0.000636886419766908
200                      10                      14                       0    1.70999320922446e-05    1.02355022409582e-05    7.36443031158916e-05
201                      12                      12                5.656854     0.00176492656431145     0.00548903015837551     0.00772938109212351