ITEM: TIMESTEP
0
ITEM: NUMBER OF ATOMS
422
ITEM: BOX BOUNDS pp pp pp
0.0000000000000000e+00 3.2000000000000000e+01
0.0000000000000000e+00 3.2000000000000000e+01
0.0000000000000000e+00 3.2000000000000000e+01
ITEM: ATOMS id xu yu zu fx fy fz
1        13.1459321938386        15.9835208156773                 7.65685     -0.0716486377708175      0.0108405823256402       0.480398704098851
2        18.8274848400711        15.9892262416344                 7.65685      0.0736068287733483     0.00736126101972385        0.48345799074493
3         17.402344993917         15.987795112765                 7.65685     -0.0799155338461439      0.0109127371712214       0.518309833179116
4         14.571072038949        15.9849519429358                 7.65685      0.0792145703302019      0.0137931259650819       0.522894218797385
5        16.7010751677692        14.7497248501637                 7.65685      -0.549498505452621       0.312889633546214        1.02626353990382
6        15.2748269908674        14.7482926087119                 7.65685       0.568850194634898       0.329389702934457        1.06655396098581
7        15.2723418650276        17.2230222053877                 7.65685       0.550608798855689       -0.33142618466843        1.04377163340766
8        16.6985900414216        17.2244544465825                 7.65685      -0.530184618043688      -0.311400605818768       0.999787562513436
9        14.5177569207574        13.5484462411751                 7.65685       0.957579486489392      -0.834744740289271        3.73081516804489
10        17.4605534827313        13.5514014038861                 7.65685      -0.980421333777601      -0.814765485940464        3.66791481669229
11        14.5128635507729         18.421345651893                 7.65685        0.97482188327576       0.800377715303418         3.8307351217424
12        17.4556601106552        18.4243008141789                 7.65685       -1.00313027837903       0.781250676260284        3.71711280676384
13        13.1273112602358        13.5624445878976                 7.65685       -1.07366581787983      -0.535635404963049        2.52359474857245
14        13.1224488081137        18.4045547622743                 7.65685       -1.09732355923315       0.503268819120104        2.56176711410889
15         18.850968226168        13.5681922935721                 7.65685        1.08475974742831      -0.547878303608003        2.60931214080153
16        18.8461057714963        18.4103024705805                 7.65685        1.10273827061428       0.532270764215696        2.66411284826659
17         12.426795838139        17.1943199436399                 7.65685      -0.308004106396404      -0.162441123128265       0.661523461363111
18        12.4292290587396        14.7712798150634                 7.65685      -0.324042924930806       0.164814623958717       0.677527398075876
19        19.5466211966922        14.7784271122721                 7.65685       0.339810613974064       0.174843020263641       0.696623136529432
20        19.5441879750283        17.2014672429596                 7.65685       0.332859781569522      -0.175147693762216       0.690057618914263
21        20.9551350226241        14.8244350858224                 7.65685      -0.653853886496648       0.512426897721925        1.39211389475948
22        20.9527913622507        17.1582882295758                 7.65685      -0.637364017065235      -0.508921942081846        1.36145944229968
23        11.0206256731611        14.8144588294926                 7.65685       0.674275171557483       0.534848384329757        1.45583908235273
24        11.0182820131454        17.1483119722736                 7.65685       0.641571590975918      -0.533794627357047        1.40115453453576
25        21.5867264607395        15.9919970781177                 7.65685     -0.0288611638422558     0.00359634527355711       0.220810482234805
26        10.3866905744716        15.9807499786644                 7.65685      0.0277050260007957     0.00879743130694327       0.222764888658095
27         21.609196045824        18.1859221409264                 7.65685      -0.407565650697084       0.193745364549503        2.07774807959423
28        21.6136022867001        13.7981215696947                 7.65685      -0.401962656281693      -0.209859867468498         2.0726788819098
29        10.3598147507275        18.1746254872963                 7.65685       0.384532245484932        0.18650168797483        2.12874063209809
30        10.3642209902605        13.7868249167297                 7.65685       0.382945435068931       -0.22400598269195        2.09475596232351
31        12.5998668222426        12.6154548000933                 7.65685     -0.0172702814387603     -0.0169516008359536      0.0558293357228536
32        12.5931035005993        19.3504833212092                 7.65685     -0.0189680472309392      0.0177659538869148      0.0569299540963752
33        19.3803135329519        12.6222637346313                 7.65685      0.0183903231907522     -0.0183352828839083      0.0569582174594353
34        19.3735502071424         19.357292260389                 7.65685      0.0198661658298252      0.0195031207209076      0.0582099616313742
35        14.9622865728669        12.5689605638796                 7.65685      0.0282579808052584     -0.0444167198776969      0.0783254172524141
36         14.955425108682        19.4017221461408                 7.65685      0.0307205499847678      0.0473978278271642      0.0827276386336506
37        17.0179919240215        12.5710249097393                 7.65685     -0.0279654870859388     -0.0430740740578726      0.0770782907268697
38         17.011130457531        19.4037864905846                 7.65685     -0.0297645538804707      0.0445468692682119      0.0796785763155321
39                       0                       0                5.656854                       0                       0                       0
40                       0                       0                2.828427                       0                       0                       0
41                       0                       0                       0                       0                       0                       0
42                       2                       2                5.656854    7.24971963041625e-10    1.02162743043968e-09    1.73350396633918e-10
43                       2                       2                2.828427                       0                       0                       0
44                       2                       2                       0                       0                       0                       0
45                       4                       0                5.656854                       0                       0                       0
46                       4                       0                2.828427                       0                       0                       0
47                       4                       0                       0                       0                       0                       0
48                       6                       2                5.656854    2.39164866998353e-08    4.84181693652411e-08    8.33228145167497e-09
49                       6                       2                2.828427    1.19122717165423e-09    2.44528673451455e-09     1.0230828566965e-09
50                       6                       2                       0    5.87999668903104e-10    1.28449873350328e-09    8.66464783627709e-10
51                       8                       0                5.656854    8.84607013329225e-10    6.28691115871015e-11     4.1437128845909e-10
52                       8                       0                2.828427     9.8525307660084e-10    8.35475580645157e-11     1.3210575778347e-09
53                       8                       0                       0                       0                       0                       0
54                      10                       2                5.656854     1.0747133125783e-07    4.16027607620928e-07    7.33706955983166e-08
55                      10                       2                2.828427    5.38566709671752e-09    2.09815579988158e-08    8.92190971347322e-09
56                      10                       2                       0    3.40524466362578e-09    1.34884177743191e-08    9.14731984883094e-09
57                      12                       0                5.656854    1.80777060519731e-09     5.1015489480726e-10     2.0554459447577e-09
58                      12                       0                2.828427    2.81104186519457e-09    4.91786970704122e-10    8.41973835830315e-09
59                      12                       0                       0    7.28400049954737e-12    3.27722633044922e-12    9.34899294295193e-11
60                      14                       2                5.656854    6.72004114732902e-08    1.03859432159487e-06    1.86130645637894e-07
61                      14                       2                2.828427    3.35454171623185e-09    5.08676386974033e-08    2.18981967759716e-08
62                      14                       2                       0    2.21424762826032e-09    3.22573096851618e-08    2.20809175052412e-08
63                      16                       0                5.656854   -1.01549904305065e-11    4.01011338514777e-10    3.08018175858563e-09
64                      16                       0                2.828427   -1.82016111124866e-11    6.75062752679989e-10    1.33145880798236e-08
65                      16                       0                       0   -2.95637174194867e-13    5.41164839066172e-12    1.92309358781004e-10
66                      18                       2                5.656854   -6.88373730666362e-08    1.03258507237257e-06    1.85015969588208e-07
67                      18                       2                2.828427   -3.43536799328041e-09    5.05948677419692e-08    2.17760240604504e-08
68                      18                       2                       0   -2.26600141795882e-09    3.21029525778419e-08    2.19706121059125e-08
69                      20                       0                5.656854   -1.81510557927734e-09    4.35286607760976e-10    2.04364228631407e-09
70                      20                       0                2.828427   -2.83071887713589e-09    3.62143629637271e-10    8.37850499234421e-09
71                      20                       0                       0   -7.59282355395997e-12    2.01752585278266e-12    9.33148381614011e-11
72                      22                       2                5.656854    -1.0643772340094e-07    4.09036480487595e-07    7.21002967479181e-08
73                      22                       2                2.828427   -5.33986652945343e-09    2.06520326715547e-08    8.77728397889022e-09
74                      22                       2                       0   -3.38179919558542e-09    1.32979730876768e-08    9.01343747166559e-09
75                      24                       0                5.656854   -8.77633075588505e-10    4.06802761250703e-11    4.09082942457474e-10
76                      24                       0                2.828427   -9.81013817565706e-10    4.79644621242812e-11    1.30708551926774e-09
77                      24                       0                       0                       0                       0                       0
78                      26                       2                5.656854   -2.33810387658918e-08    4.71659353808405e-08    8.11144164756794e-09
79                      26                       2                2.828427   -1.16616985561057e-09    2.38540399463912e-09    9.97346986785696e-10
80                      26                       2                       0   -5.76867648798465e-10    1.25566723496041e-09    8.46355451371321e-10
81                      28                       0                5.656854                       0                       0                       0
82                      28                       0                2.828427                       0                       0                       0
83                      28                       0                       0                       0                       0                       0
84                      30                       2                5.656854   -7.02411571020188e-10     9.8816409502187e-10    1.67511770896127e-10
85                      30                       2                2.828427                       0                       0                       0
86                      30                       2                       0                       0                       0                       0
87                       0                       4                5.656854    7.41316612351511e-12    4.00088974467544e-10    8.17142813082289e-11
88                       0                       4                2.828427                       0                       0                       0
89                       0                       4                       0                       0                       0                       0
90                       2                       6                5.656854    1.38105440874791e-07    1.26961074808533e-07    3.14835050487081e-08
91                       2                       6                2.828427    7.05006902594403e-09    6.39821661145336e-09    3.83895744279207e-09
92                       2                       6                       0    4.18078737703476e-09    3.80237750440401e-09    3.67111343092211e-09
93                       4                       4                5.656854     1.5317684369936e-08    2.09551631298553e-08    4.25897626624928e-09
94                       4                       4                2.828427    2.57011351514481e-08    3.53260012402404e-08    1.72893326720672e-08
95                       4                       4                       0    4.58231461533877e-10    6.51986620796916e-10    5.09396862671579e-10
96                       6                       6                5.656854    4.93498868019082e-06    7.33651402985588e-06    1.86839600078134e-06
97                       6                       6                2.828427    1.95497698226241e-07    2.87013223735938e-07    1.75467929397406e-07
98                       6                       6                       0     9.9204534138595e-08     1.4330908869521e-07    1.38177349068522e-07
99                       8                       4                5.656854    1.85915459381543e-07    4.37895953309414e-07    9.15442547263211e-08
100                       8                       4                2.828427    2.67565296334674e-07    6.25544440973167e-07    3.14046136772043e-07
101                       8                       4                       0    4.71910963161748e-09    1.10435134325596e-08    8.78921139850538e-09
102                      10                       6                5.656854    3.48844254500977e-05     0.00010435489862241    2.80754917999695e-05
103                      10                       6                2.828427    1.07099290532654e-06    3.16141128388988e-06    2.02526427850525e-06
104                      10                       6                       0    4.10957219117354e-07    1.18688350347771e-06    1.18481763799857e-06
105                      12                       4                5.656854    3.87073630235345e-07    2.34288369069088e-06    5.06362011103616e-07
106                      12                       4                2.828427    5.00576303478891e-07    2.94785251734568e-06    1.52535751834862e-06
107                      12                       4                       0    8.00361971983829e-09    4.59478881647895e-08    3.73698065288338e-08
108                      14                       6                5.656854    1.95241274726986e-05    0.000306140866416165    8.52228277644231e-05
109                      14                       6                2.828427     5.9347158805077e-07    8.29385099474751e-06    5.48447190842979e-06
110                      14                       6                       0    2.25923038043038e-07    2.76937579653986e-06    2.84166388749409e-06
111                      16                       4                5.656854   -3.67405310411574e-09     3.5309959875387e-06    7.70904192903525e-07
112                      16                       4                2.828427   -4.55196657719092e-09    4.35991722895784e-06    2.27859199742454e-06
113                      16                       4                       0   -6.99857153582882e-11    6.66721356711086e-08    5.46848489933383e-08
114                      18                       6                5.656854   -2.01077794749497e-05    0.000304230226564858     8.4652697055769e-05
115                      18                       6                2.828427   -6.09430907438962e-07    8.24897506145311e-06    5.45254102277488e-06
116                      18                       6                       0   -2.31053788065674e-07    2.75583742432082e-06    2.82712932855941e-06
117                      20                       4                5.656854   -3.87300580765102e-07     2.3141755595259e-06    4.99885401225928e-07
118                      20                       4                2.828427   -5.01270956021063e-07    2.91518369987274e-06    1.50767708770569e-06
119                      20                       4                       0   -8.02383748088809e-09    4.55057925444587e-08    3.69922562366794e-08
120                      22                       6                5.656854   -3.44467108374126e-05    0.000102304069539358    2.74964633725898e-05
121                      22                       6                2.828427   -1.06012198415028e-06    3.10711089874446e-06     1.9886544083423e-06
122                      22                       6                       0   -4.07845538739753e-07    1.16973224918525e-06    1.16672278744484e-06
123                      24                       4                5.656854    -1.8245947312675e-07    4.27656558528251e-07     8.9333701307207e-08
124                      24                       4                2.828427    -2.6308065265752e-07    6.12097850408606e-07     3.0706334939665e-07
125                      24                       4                       0   -4.65178553461706e-09     1.0834091470233e-08    8.61608908489345e-09
126                      26                       6                5.656854   -4.80301622831246e-06    7.11608943773477e-06    1.81022960877727e-06
127                      26                       6                2.828427   -1.90818315430502e-07    2.79216466963452e-07    1.70518745575048e-07
128                      26                       6                       0   -9.71770104072469e-08    1.39930437115049e-07    1.34782641569941e-07
129                      28                       4                5.656854   -1.48774221998661e-08    2.03019054787625e-08    4.12255782636913e-09
130                      28                       4                2.828427   -2.50096966576698e-08    3.42910032442907e-08    1.67679964672558e-08
131                      28                       4                       0   -3.51637852869482e-10    4.87945498956686e-10    3.91601645629302e-10
132                      30                       6                5.656854   -1.33396317105869e-07     1.2252710673308e-07    3.03500942824532e-08
133                      30                       6                2.828427    -6.8283186249183e-09    6.18751236961367e-09    3.70825785576587e-09
134                      30                       6                       0   -4.06289766046348e-09    3.68999759905171e-09    3.55819844151359e-09
135                       0                       8                5.656854    5.52438683197829e-10    1.74448305278523e-08    5.54589837983004e-09
136                       0                       8                2.828427    8.42201672260527e-10    2.82210040282488e-08    2.18737502908316e-08
137                       0                       8                       0     9.9442679976345e-12    3.61708325157703e-10    4.78136127886646e-10
138                       2                      10                5.656854    4.83981468127064e-06    2.44710753127744e-06    1.11861155785881e-06
139                       2                      10                2.828427    1.96280662884942e-07    1.00466747230683e-07    1.09005289711466e-07
140                       2                      10                       0     1.0324738985838e-07    5.32406450918461e-08    8.94631938533696e-08
141                       4                       8                5.656854    1.56871161343204e-06    1.39601156835835e-06    4.58051396240925e-07
142                       4                       8                2.828427    1.88782027070639e-06    1.67421407897665e-06    1.31338990986963e-06
143                       4                       8                       0    2.81614868861344e-08    2.48896260780528e-08    3.05511847677843e-08
144                       6                      10                5.656854    0.000507056400690956    0.000434137147254065    0.000210947300292441
145                       6                      10                2.828427    1.09471566064064e-05    9.31128270046162e-06    1.06401025042013e-05
146                       6                      10                       0    2.94365513424964e-06    2.48092514250001e-06    4.34469087477807e-06
147                       8                       8                5.656854    4.04836716043336e-05    6.88615241629959e-05    2.37474833913226e-05
148                       8                       8                2.828427    3.17385642139801e-05     5.2319374224238e-05    4.29253617769632e-05
149                       8                       8                       0    2.98814210832955e-07    4.75637875774335e-07    6.06070101945507e-07
150                      10                      10                5.656854     0.00565786884488388      0.0110659485299475     0.00589056178640023
151                      10                      10                2.828427    7.99068350311588e-05    0.000156939644309037    0.000194594044099781
152                      10                      10                       0    1.33122334475315e-05    2.45420989615016e-05    4.57942076342297e-05
153                      12                       8                5.656854    0.000119378619251952    0.000561611382497981    0.000212403837965838
154                      12                       8                2.828427    6.84295300133999e-05    0.000307868285788568     0.00027145742691391
155                      12                       8                       0     4.9401536653396e-07    2.09384610397456e-06    2.81706251160085e-06
156                      14                      10                5.656854     0.00153700473169972      0.0186229392396555     0.00991886989354166
157                      14                      10                2.828427    3.01102173790175e-05    0.000400421294098781    0.000544788158731195
158                      14                      10                       0    5.60369755018784e-06    5.34305410043477e-05    0.000106551894117578
159                      16                       8                5.656854   -9.01514850417254e-07    0.000830728534799151    0.000321740947458099
160                      16                       8                2.828427   -5.02653788577724e-07    0.000441558649386516    0.000398451423772392
161                      16                       8                       0   -3.51768951731694e-09    2.91794679153623e-06     4.0088192967097e-06
162                      18                      10                5.656854    -0.00161963932444455      0.0186985501765028     0.00997507944382166
163                      18                      10                2.828427   -3.12393695959689e-05    0.000398970886751581    0.000542292040414517
164                      18                      10                       0   -5.75085118618836e-06    5.32710498079937e-05    0.000106150735308598
165                      20                       8                5.656854   -0.000119366560050288    0.000553930100104651    0.000209248073953242
166                      20                       8                2.828427   -6.85505799409571e-05    0.000304484609472596    0.000268189109640273
167                      20                       8                       0   -4.95584799689674e-07    2.07557588212325e-06     2.7899198850441e-06
168                      22                      10                5.656854    -0.00559852477401549      0.0108918372910673     0.00578662585530784
169                      22                      10                2.828427   -7.91561560223648e-05    0.000154411656485205     0.00019106385961385
170                      22                      10                       0   -1.32318573019392e-05    2.42359812427378e-05    4.51474451821827e-05
171                      24                       8                5.656854   -3.95603042949047e-05    6.69603334664751e-05     2.3055516597125e-05
172                      24                       8                2.828427   -3.11443766937226e-05    5.11015684916777e-05    4.18661519723268e-05
173                      24                       8                       0   -2.94418540460373e-07    4.66575321126975e-07    5.93769143642036e-07
174                      26                      10                5.656854   -0.000490995835676043    0.000419323899986161    0.000203273748731454
175                      26                      10                2.828427   -1.06618085751895e-05    9.04526859834608e-06     1.0314841557894e-05
176                      26                      10                       0    -2.8821499740681e-06    2.42305182299014e-06    4.23615518339372e-06
177                      28                       8                5.656854     -1.516462478342e-06    1.34688206919797e-06    4.41248408768649e-07
178                      28                       8                2.828427   -1.83166896362484e-06      1.621205803543e-06    1.26997011849655e-06
179                      28                       8                       0   -2.74449619797441e-08    2.42075796189923e-08    2.96747266714284e-08
180                      30                      10                5.656854   -4.66055236953026e-06    2.35693986077243e-06    1.07522862052158e-06
181                      30                      10                2.828427   -1.89689957076911e-07    9.70676250647492e-08    1.05133496990053e-07
182                      30                      10                       0   -1.00255603881597e-07    5.16420487814709e-08    8.66377855589764e-08
183                       0                      12                5.656854    6.22704583663572e-09       8.60176594399e-08    6.08787960624407e-08
184                       0                      12                2.828427    8.85115877203347e-09    1.33956297742451e-07     2.2436715832189e-07
185                       0                      12                       0    1.52920146788873e-10    2.66616203842694e-09    6.90329202356819e-09
186                       2                      14                5.656854     2.9463084109035e-05    4.15431359096879e-06    6.80956785721266e-06
187                       2                      14                2.828427    1.04221978803909e-06    1.54923497486003e-07    5.79308277610716e-07
188                       2                      14                       0    4.62032154267996e-07    7.24610156756544e-08    4.03505771058826e-07
189                       4                      12                5.656854    4.01738549718109e-05    1.50955931945461e-05    1.20076015199153e-05
190                       4                      12                2.828427    3.32678802269793e-05     1.2964859587136e-05    2.36581489876552e-05
191                       4                      12                       0    3.29140383139075e-07    1.33139824812356e-07     3.6343481314049e-07
192                       6                      14                5.656854     0.00625588373347467     0.00126652275038749     0.00264400852190782
193                       6                      14                2.828427    9.41656647114755e-05    2.11068089444767e-05    9.36380504808568e-05
194                       6                      14                       0    1.68948635873674e-05     4.2000105891162e-06    2.55550584582288e-05
195                       8                      12                5.656854     0.00246701838214687     0.00194938972403665     0.00165099210476012
196                       8                      12                2.828427      0.0010015542975704     0.00078063309845527     0.00155935473813031
197                       8                      12                       0    4.47334801513582e-06    3.43792405529597e-06    1.00218327033184e-05
198                      10                      14                5.656854       -1.17815623041868      -0.467456943253943       -3.66756064400349
199                      10                      14                2.828427    0.000734611910757119    0.000448735366670088     0.00231067001195197
200                      10                      14                       0    7.38159942838483e-05    4.40953338130479e-05    0.000297512285910019
201                      12                      12                5.656854     -0.0176725234309716     -0.0216935932710988     -0.0476100554783902