ITEM: TIMESTEP
0
ITEM: NUMBER OF ATOMS
422
ITEM: BOX BOUNDS ff ff ff
0.0000000000000000e+00 2.3200000000000000e+02
0.0000000000000000e+00 2.3200000000000000e+02
0.0000000000000000e+00 2.3200000000000000e+02
ITEM: ATOMS id xu yu zu fx fy fz
1        113.845932193839        115.983520815677              108.656854    0.000808483166288676   -0.000459866215458501      0.0184440114361192
2        119.527484840071        115.989226241634              108.656854    -0.00196479700176785    -0.00114961449378427    -0.00383212617856585
3        118.102344993917        115.987795112765              108.656854     0.00382758711807327     0.00345675003638046      0.0182841932142477
4        115.271072038949        115.984951942936              108.656854     0.00537026128680668     0.00315028173555598     0.00364025133143979
5        117.401075167769        114.749724850164              108.656854      -0.020006000430921       0.034675355834809       0.104277577962642
6        115.974826990867        114.748292608712              108.656854      0.0050317404229973     0.00809988673242046      0.0116137414790677
7        115.972341865028        117.223022205388              108.656854     0.00503204223910148   -0.000360132215020958      0.0108145276086883
8        117.398590041422        117.224454446583              108.656854     -0.0195143359573454     -0.0272236962886957        0.10080666430883
9        115.217756920757        113.548446241175              108.656854       0.034069565469729     -0.0232430383802253      0.0638576072054332
10        118.160553482731        113.551401403886              108.656854    -0.00167935376186581     -0.0412142641819913       0.188112720320701
11        115.212863550773        118.421345651893              108.656854      0.0349123551009702      0.0038743958597169      0.0676883377753333
12        118.155660110655        118.424300814179              108.656854    -0.00136487595101285      0.0216115199835777       0.192825141741663
13        113.827311260236        113.562444587898              108.656854    0.000615539046604163      -0.041160501759742       0.185592132464371
14        113.822448808114        118.404554762274              108.656854    2.31196882856943e-05      0.0234087694480314       0.190492316491705
15        119.550968226168        113.568192293572              108.656854    -0.00575245768456023     -0.0185581355086189      0.0325575046960427
16        119.546105771496         118.41030247058              108.656854    -0.00467361931115134     0.00305601997252294      0.0349739762701135
17        113.126795838139         117.19431994364              108.656854     -0.0203819645086733     -0.0144834802279996      0.0732444913854205
18         113.12922905874        114.771279815063              108.656854     -0.0213705384572774      0.0238852819703106      0.0768269202797285
19        120.246621196692        114.778427112272              108.656854     -0.0012359867729493      0.0052625587616241      0.0140336087959594
20        120.244187975028         117.20146724296              108.656854    -0.00120385062097632     0.00376052307212862      0.0131869621125709
21        121.655135022624        114.824435085822              108.656854       0.124520629579467       0.141046214616117      0.0546224393077314
22        121.652791362251        117.158288229576              108.656854       0.122210433153622     -0.0418596946409995      0.0488287106693462
23        111.720625673161        114.814458829493              108.656854    -0.00799824625368517       0.112418594571393      0.0457369793308148
24        111.718282013145        117.148311972274              108.656854    -0.00741650516462927    -0.00472020984485758      0.0422820161314054
25         122.28672646074        115.991997078118              108.656854     -0.0331146364503172     -0.0257343977976337     0.00775565538200054
26        111.086690574472        115.980749978664              108.656854     0.00172585222547705     -0.0278388119076599     -0.0356843461924214
27        122.309196045824        118.185922140926              108.656854      -0.103774197259184     -0.0431766834427676       0.194582188252636
28          122.3136022867        113.798121569695              108.656854       -0.11044532403887     -0.0788532774185732       0.183387692601997
29        111.059814750727        118.174625487296              108.656854      0.0568496242443369     -0.0575818877370563      0.0705818614114212
30         111.06422099026         113.78682491673              108.656854       0.059087115102827     -0.0776411110769128      0.0573749971467336
31        113.299866822243        112.615454800093              108.656854      -0.015424642739147      0.0246771085105075    -0.00115261895954593
32        113.293103500599        119.350483321209              108.656854     -0.0151601293797512      0.0175898538212716    -0.00704616661476336
33        120.080313532952        112.622263734631              108.656854       0.073440879996151      0.0275223726796068      0.0115111707554446
34        120.073550207142        119.357292260389              108.656854      0.0707888339882916      0.0128366924380144     0.00580370537785266
35        115.662286572867         112.56896056388              108.656854     0.00921622388001003      0.0160212081507239      0.0061920465987311
36        115.655425108682        119.401722146141              108.656854     0.00871543731205748      0.0115336164289752     0.00208884885601637
37        117.717991924022        112.571024909739              108.656854      0.0167474406308493      0.0133298806649814    -0.00804438084141895
38        117.711130457531        119.403786490585              108.656854      0.0158060228524342      0.0139106914794971     -0.0116925454561402
39                     100                     100              105.656854       0.212296519990015        0.21396822250536      -0.975686873988387
40                     100                     100              102.828427       0.431899641837032       0.430422898250995   -0.000373192758615828
41                     100                     100                     100        0.21223631081694       0.213459155631204       0.976322543064954
42                     102                     102              105.656854       -0.34474222828987      -0.347562089177019      -0.277964286412103
43                     102                     102              102.828427     -0.0506886064160487     -0.0482964545123256    0.000685016579095628
44                     102                     102                     100      -0.344642381410389      -0.346517714168985       0.276835425424377
45                     104                     100              105.656854      0.0959767864535508       0.960223864246102       -0.80891378477977
46                     104                     100              102.828427     -0.0639123421212357        0.72655891015017   -0.000321843357321852
47                     104                     100                     100       0.096252495678572        0.95956160064365       0.809430719678157
48                     106                     102              105.656854      -0.149483781538294      -0.515259548171078      -0.381534709805079
49                     106                     102              102.828427       0.142468994844832      0.0668287204989224    0.000502312898483547
50                     106                     102                     100      -0.150263407729716      -0.513974440714871       0.380767887666526
51                     108                     100              105.656854       0.109638921810512        1.06048556190961      -0.801820346948301
52                     108                     100              102.828427      -0.111581058688763       0.639565361459573    0.000121843611331691
53                     108                     100                     100       0.110593839486176         1.0602452487115       0.801566959420133
54                     110                     102              105.656854      -0.143120850566523      -0.582706174335666      -0.374060843054493
55                     110                     102              102.828427       0.147833989706508       0.135368177337807   -0.000659012796854988
56                     110                     102                     100      -0.145402599174579      -0.582937529217338       0.375222957265155
57                     112                     100              105.656854       0.131358330424284        1.10884413931612      -0.810570815230203
58                     112                     100              102.828427      -0.135188397010762       0.589160425672425     0.00101787282399121
59                     112                     100                     100       0.132620322034506        1.11002934948292       0.808831314263017
60                     114                     102              105.656854      -0.162908679980038      -0.619251796017237      -0.361520163111757
61                     114                     102              102.828427       0.168063170372717       0.175090183434875    -0.00244971708109697
62                     114                     102                     100        -0.1648141040203      -0.622810529906594       0.365578411514276
63                     116                     100              105.656854       0.166003165122202        1.14381526170007      -0.821234144362936
64                     116                     100              102.828427      -0.170315252757952       0.552358690051649      0.0016710383727624
65                     116                     100                     100         0.1662674792749        1.14620523716645       0.818428416841469
66                     118                     102              105.656854      -0.208642394400857      -0.650235988091632      -0.347767973328842
67                     118                     102              102.828427       0.213730184433002       0.207557526384639    -0.00284139578664797
68                     118                     102                     100      -0.207622067305368      -0.654579769786506       0.352455328627326
69                     120                     100              105.656854       0.222964016539041        1.18191911496913      -0.835363645182972
70                     120                     100              102.828427      -0.228433999448027       0.513374053594624     0.00132726874129139
71                     120                     100                     100       0.221903047219557        1.18366258891414       0.833117933566487
72                     122                     102              105.656854      -0.288893883885221      -0.687013036436825      -0.330040767365159
73                     122                     102              102.828427        0.29361783547923       0.243665992419808    -0.00129866805220922
74                     122                     102                     100      -0.286378939994388      -0.688360235428595       0.332242078972761
75                     124                     100              105.656854        0.32655548404625         1.2362855151945       -0.85220718587334
76                     124                     100              102.828427      -0.323139287264139       0.459829483880972    0.000402608165340106
77                     124                     100                     100       0.325387804561141        1.23644727590156       0.851483510449492
78                     126                     102              105.656854      -0.462207804502073      -0.727429315359131      -0.331934041506489
79                     126                     102              102.828427       0.397609172771687       0.281476908936298     0.00022756490606681
80                     126                     102                     100      -0.460903820827852      -0.726388077949305       0.331634425111975
81                     128                     100              105.656854       0.708529095893057        1.34063909791999      -0.754767835319066
82                     128                     100              102.828427       -0.28113594378917       0.396157859451291   -0.000222033828856598
83                     128                     100                     100       0.708043639631651        1.34002568508822       0.755105360955426
84                     130                     102              105.656854       -1.34088873183374      -0.708858762685264      -0.755430106960596
85                     130                     102              102.828427      -0.395611519632183       0.281076715510437    0.000685335983573482
86                     130                     102                     100       -1.34079137700074      -0.707658902292155        0.75432134485949
87                     100                     104              105.656854       0.959266425789724      0.0998552888885324      -0.808481918127133
88                     100                     104              102.828427       0.727500163120387     -0.0671229702620998   -0.000980050139680666
89                     100                     104                     100       0.958689381396318      0.0986858819328458       0.810115380178943
90                     102                     106              105.656854      -0.514120740266707      -0.156665413318643      -0.382625518080499
91                     102                     106              102.828427      0.0655607492279242       0.147980034323831     0.00200639574674132
92                     102                     106                     100      -0.512739339789751       -0.15407068365837       0.379383710785006
93                     104                     104              105.656854       0.247717392190082       0.252872620708516       -0.38852654983676
94                     104                     104              102.828427      -0.180372048076304      -0.184470390917453    -0.00133927225714071
95                     104                     104                     100       0.247587922901007       0.250551283017321       0.390661955546888
96                     106                     106              105.656854      -0.234447212185854       -0.24497082275937      -0.504664878776556
97                     106                     106              102.828427       0.226106378592245       0.233574689540262     0.00276898440624968
98                     106                     106                     100      -0.234561722175655       -0.23933746425432       0.500273389416234
99                     108                     104              105.656854       0.173764181351916       0.339517285365916      -0.374952470088365
100                     108                     104              102.828427      -0.177496502913248      -0.269369992308982   -0.000651467399565443
101                     108                     104                     100        0.17619586962731       0.337083289461841       0.375900278950612
102                     110                     106              105.656854       -0.18253022966991      -0.295862994556274      -0.491187816675901
103                     110                     106              102.828427       0.192219355312295       0.286999940410139    1.03071081099458e-05
104                     110                     106                     100      -0.190727370073772      -0.292413619982159        0.49121461414148
105                     112                     104              105.656854       0.165992824267056       0.380928473356459      -0.390366892018973
106                     112                     104              102.828427      -0.173380541895204      -0.315333151789353     0.00247411466668626
107                     112                     104                     100       0.171219777328787       0.383820665143988       0.386239994183907
108                     114                     106              105.656854      -0.184547670435287      -0.309533586962073      -0.467812971450762
109                     114                     106              102.828427       0.195323870461725       0.312594313199955    -0.00774386140687922
110                     114                     106                     100      -0.193940474102517      -0.322601357427264       0.481119581114184
111                     116                     104              105.656854       0.196179909527465        0.40480972384807       -0.40646660978864
112                     116                     104              102.828427      -0.202057943700594      -0.343859157558046     0.00536355162759588
113                     116                     104                     100       0.197402789778998       0.413748865953924        0.39766417780053
114                     118                     106              105.656854      -0.238362181211793      -0.326508288771958      -0.449761659123242
115                     118                     106              102.828427       0.241743527009648        0.33304747670394    -0.00963702650271406
116                     118                     106                     100      -0.233255337551199      -0.343817030951267        0.46629017535718
117                     120                     104              105.656854       0.260214100921148       0.433806212190668      -0.422305219770858
118                     120                     104              102.828427      -0.264654514534702      -0.371668736347084     0.00379841541502505
119                     120                     104                     100       0.255515775620846        0.43941556074782       0.416032090532477
120                     122                     106              105.656854      -0.320643095166524      -0.359528014095746      -0.436804564914308
121                     122                     106              102.828427       0.320884181458955        0.35602428432992    -0.00248473735019858
122                     122                     106                     100      -0.309806386916663      -0.360910717836679       0.441055752025838
123                     124                     104              105.656854       0.369319194146311       0.462905988667487      -0.438896953610527
124                     124                     104              102.828427      -0.363263000537407      -0.397244628150021    0.000170536795639195
125                     124                     104                     100       0.365565420037328       0.461587052755586       0.438507079033444
126                     126                     106              105.656854      -0.467912032915713      -0.369484995824161      -0.441617500432234
127                     126                     106              102.828427       0.402277818704075       0.361462253952131     0.00246469778877015
128                     126                     106                     100      -0.465786433754298      -0.363228655072098       0.437685415975463
129                     128                     104              105.656854       0.728660496270437       0.462574905852138      -0.330624569031188
130                     128                     104              102.828427      -0.283163153622257      -0.397128456907607    -0.00129771802061982
131                     128                     104                     100       0.728208798362898       0.459916253392887       0.332659393726506
132                     130                     106              105.656854         -1.236941653069      -0.329024247478069      -0.853852851400079
133                     130                     106              102.828427      -0.458394747711652       0.324257187093948     0.00235637619247658
134                     130                     106                     100       -1.23824094096288      -0.325508183108689       0.850089010169303
135                     100                     108              105.656854        1.06295101008324       0.116133612192102      -0.800194561664146
136                     100                     108              102.828427        0.63811594576103      -0.116627412468415     -0.0021980169155111
137                     100                     108                     100        1.06080527422066       0.114118163364019       0.803788260335575
138                     102                     110              105.656854      -0.589518668251509      -0.154497447246116      -0.378315839481767
139                     102                     110              102.828427       0.138883316546985       0.155820422814617     0.00465199467067374
140                     102                     110                     100      -0.584123432490302      -0.150373085161652       0.370851911442665
141                     104                     108              105.656854       0.338911753293082        0.18838231348097      -0.371671614942369
142                     104                     108              102.828427      -0.267768251471305      -0.187350665432615    -0.00444437546122162
143                     104                     108                     100       0.335274503588095       0.182132559412305       0.378796238075444
144                     106                     110              105.656854      -0.299810596145508      -0.215338411427751      -0.503649334831835
145                     106                     110              102.828427        0.28507796507914       0.209783440471054      0.0103690406645252
146                     106                     110                     100      -0.289538366223831      -0.199462280850584       0.485232041870067
147                     108                     108              105.656854       0.225987429728732       0.251101478034379      -0.358474063564092
148                     108                     108              102.828427      -0.230742171672795      -0.245045106703981    -0.00568481144306133
149                     108                     108                     100       0.228695595939826       0.236300581267465       0.368797180302653
150                     110                     110              105.656854       -0.19557352125511      -0.265851066866328      -0.498642984125654
151                     110                     110              102.828427       0.219107916890931       0.245653839660881     0.00866895729124825
152                     110                     110                     100      -0.222321913965866      -0.233423618681398       0.473405843531764
153                     112                     108              105.656854       0.174763265495093       0.264928300895371      -0.388620673812344
154                     112                     108              102.828427      -0.197234066670776      -0.272157001083397     0.00520096009421635
155                     112                     108                     100       0.200574844196875        0.26822018820124       0.379379466596693
156                     114                     110              105.656854      -0.163037264892022      -0.195049600129816      -0.394550296821095
157                     114                     110              102.828427       0.203885117348296        0.24903627935011     -0.0226067784750128
158                     114                     110                     100      -0.211288980453421      -0.250008824547195       0.468364296444269
159                     116                     108              105.656854       0.212217220316051       0.250509754372551      -0.425398050645858
160                     116                     108              102.828427      -0.222022182927347      -0.281910230044032      0.0190200698922641
161                     116                     108                     100       0.218337919994054        0.28603125975895       0.388886199560231
162                     118                     110              105.656854      -0.270587510108605      -0.188319531068479      -0.360852262803881
163                     118                     110              102.828427       0.261154256201072       0.255445239706938     -0.0304852080221031
164                     118                     110                     100      -0.247256611584588      -0.259537019502046       0.454037969186793
165                     120                     108              105.656854       0.297738493668598       0.281426945909375      -0.433182933828566
166                     120                     108              102.828427       -0.28923738547419      -0.300850184119075      0.0114389025648265
167                     120                     108                     100       0.273308868048814       0.299800657225775       0.411269419908676
168                     122                     110              105.656854      -0.371888432430416      -0.276206320757721      -0.420829761638444
169                     122                     110              102.828427       0.336982855897443       0.274418487391566   -0.000150685009189877
170                     122                     110                     100      -0.315779368796512      -0.264933850165581       0.420965208446873
171                     124                     108              105.656854       0.380646176807677       0.319396702776366      -0.431747110935703
172                     124                     108              102.828427      -0.370660612761053      -0.315142046424815    -0.00382523087443197
173                     124                     108                     100       0.369906130191317       0.304838365318119       0.439586246371372
174                     126                     110              105.656854      -0.440421534358578      -0.279359383229374      -0.438696144476017
175                     126                     110              102.828427       0.383047583842975        0.26867072107219      0.0121601628722527
176                     126                     110                     100      -0.448222836010752      -0.255176470462363       0.414228244028169
177                     128                     108              105.656854       0.689103388173063       0.295361625390664      -0.325546269671466
178                     128                     108              102.828427      -0.247666567589354      -0.295823154548936    -0.00531003634071343
179                     128                     108                     100       0.692423611317028       0.286390153132806       0.334203816989379
180                     130                     110              105.656854       -1.17886877523609      -0.229677440736723      -0.840248015275394
181                     130                     110              102.828427      -0.512618558899264       0.231828831373624     0.00624955652190048
182                     130                     110                     100       -1.18607224600418      -0.223144598980413       0.830159241895224
183                     100                     112              105.656854        1.11765763003037       0.137520270113428      -0.807029145354393
184                     100                     112              102.828427       0.583541309415726      -0.139776598773544    -0.00378354809663591
185                     100                     112                     100        1.11290719141444       0.135655355552753        0.81315048495742
186                     102                     114              105.656854      -0.637322613380795      -0.169777869693248       -0.36976967382356
187                     102                     114              102.828427       0.184979094466341       0.172740013066167     0.00730859769683926
188                     102                     114                     100      -0.627008977748585      -0.167608978409433       0.358020791525111
189                     104                     112              105.656854       0.399781340982953       0.185144787142168       -0.37775913523162
190                     104                     112              102.828427      -0.322907242738572      -0.184955263903829     -0.0101256720820024
191                     104                     112                     100       0.385713898201947       0.177447297189787       0.394640304950672
192                     106                     114              105.656854      -0.354809508890418      -0.207758462961475      -0.506708566194043
193                     106                     114              102.828427        0.32479294480933       0.207635725285107       0.020355410691495
194                     106                     114                     100      -0.324169387696108      -0.199720519919427       0.466648201056649
195                     108                     112              105.656854       0.291069477620347       0.247544676995433      -0.326362189560427
196                     108                     112              102.828427      -0.267694139012678      -0.223743198745027      -0.021540605202885
197                     108                     112                     100       0.263051635261537       0.211395890721727       0.390335114631296
198                     110                     114              105.656854      -0.213245287939233      -0.202379903815272      -0.661463873407406
199                     110                     114              102.828427       0.231147672042556       0.227781511715373      0.0238762679072804
200                     110                     114                     100      -0.240876329873193      -0.220586889650262       0.453422998691059
201                     112                     112              105.656854      0.0920779633970627        0.25445076913465      -0.373835173043853