ITEM: TIMESTEP
0
ITEM: NUMBER OF ATOMS
422
ITEM: BOX BOUNDS ff ff ff
0.0000000000000000e+00 2.3200000000000000e+02
0.0000000000000000e+00 2.3200000000000000e+02
0.0000000000000000e+00 2.3200000000000000e+02
ITEM: ATOMS id xu yu zu fx fy fz
1        113.104626259993        115.942214881831        108.615548066154        11.5062121201643        9.82222243939097      -0.735565351262054
2        118.864284698805        116.026026100369        108.693653858734       -6.82931894543261       -4.16497177392284       0.536854441640849
3        117.443577604539        116.029027723387        108.698086610623       -4.10793311528887       -7.70856065874938     -0.0285862302412291
4        114.608692629144        116.022572533131        108.694474590195       -6.41874066719047       -5.13442352899246       0.262464544599953
5        116.659362667928        114.708012350322        108.615141500158        5.62188234602168        4.09170926880025      -0.256223724316699
6        115.263550113331        114.737015731175        108.645577122463         3.2357152115634        2.03773314306506      -0.153928751841091
7         115.27113606357        117.221816403931        108.655648198543        1.42321995303928        3.35199215374959     -0.0570342583535471
8         116.67898499297        117.204849398131        108.637248951548        3.12051815802251         5.8951657520673      -0.204241688424013
9        114.516773077487        113.547462397904        108.655870156729        5.90521639705719         -6.732616390823      -0.224353483649989
10        117.432205734763        113.523053655917        108.628506252031      0.0497956581266845        -2.0168629675538      -0.318887504060905
11        114.509229674547        118.417711775668        108.653220123775        3.81362078060709        8.47030076552726      0.0396304654033813
12        117.466607821936         118.43524852546        108.667801711281       -6.11940062682134        7.09946162781988      -0.220226859920098
13        113.161179980908         113.59631330857        108.690722720673       -7.26771161861702       -11.4375620757855       0.433790496590095
14        113.127870970242        118.409976924402        108.662276162128       -5.69730052244889        4.20009590906032     -0.0223372216424237
15        118.876247189795        113.593471257199        108.682132963627        2.96783569048915       -7.68524053162868      -0.153718786340937
16         118.84509420315        118.409290902234        108.655842431654        5.01670503038455        10.6679193378585      -0.104525088013042
17        112.384733418076        117.152257523577        108.614791579937        3.89641103583887        7.55589970827718      -0.669635535695973
18        112.475420250563        114.817471006887        108.703045191824       -6.56335805687847       -8.84393103155488       0.772649419387323
19        119.565990560171        114.797796475751        108.676223363479        1.70104972680817       -2.57227245704938       0.122115822969046
20        119.585275102245        117.242554370177        108.697941127217       -2.63525460015543      -0.317197455018382       0.363036308383122
21        121.000743147965        114.870043211164        108.702462125341        6.72250310853599       -16.4317839036098       0.470382277802485
22        120.924806584353        117.130303451678        108.628869222102        14.8713107678874        18.2945214863659      -0.800467443771544
23        111.032552776685        114.826385933017        108.668781103524       -7.78676758428378        -9.6988510542243       0.187831954776706
24        111.021387066935        117.151417026064         108.65995905379       -12.0880786546333        8.89396033083106      0.0315560632122625
25        121.607947576881        116.013218194259        108.678075116142        6.15953357061825       0.123555071605907     0.00417596470016144
26        110.364170188135        115.958229592328        108.634333613663       -4.46060344690314        4.39138019935388      -0.209775837203834
27        121.604214269495        118.180940364597        108.651872223671        5.62303238432713        5.25920943270161      -0.247630262362028
28        121.638801094319        113.823320377314        108.682052807619        4.54756388850727       -5.29805812759969      0.0305057701910229
29        110.380653974731          118.1954647113        108.677693224004       -5.40441808148828        4.98533081038278       0.216679102173122
30        110.407157698911         113.82976162538         108.69979070865        -6.2231492372606       -9.88393186205541       0.237025698647076
31        112.631078594203        112.646666572053         108.68806577196       -4.02685688090139        -4.9585359091755      0.0564780786152566
32        112.561161456844        119.318541277454        108.624911956244       -2.85205976571835        4.82252085604015       -0.04952626465338
33        119.342754498297        112.584704699977        108.619294965346        2.86732722923022       -2.99315373800426     -0.0234131753768276
34        119.407008197254          119.3907502505        108.690311990111        1.65656396679112        3.41738131430081     -0.0220800725100387
35        115.007150512006        112.613824503019        108.701717939139        3.38111771478529       -6.76778705298193       0.168659191511046
36         114.96647871793        119.412775755389        108.667907609248        3.10173235729532        4.26948389371258      0.0147217188324067
37        117.058400864474        112.611433850192        108.697262940453       -4.79972046494071         -9.104523730363       0.392151286623821
38        117.054185280743        119.446841313796        108.699908823212       -3.90819482713825         4.1004207481813       0.161448933580518
39                     100                     100              105.656854                       0                       0                       0
40                     100                     100              102.828427                       0                       0                       0
41                     100                     100                     100                       0                       0                       0
42                     102                     102              105.656854                       0                       0                       0
43                     102                     102              102.828427                       0                       0                       0
44                     102                     102                     100                       0                       0                       0
45                     104                     100              105.656854                       0                       0                       0
46                     104                     100              102.828427                       0                       0                       0
47                     104                     100                     100                       0                       0                       0
48                     106                     102              105.656854                       0                       0                       0
49                     106                     102              102.828427                       0                       0                       0
50                     106                     102                     100                       0                       0                       0
51                     108                     100              105.656854                       0                       0                       0
52                     108                     100              102.828427                       0                       0                       0
53                     108                     100                     100                       0                       0                       0
54                     110                     102              105.656854                       0                       0                       0
55                     110                     102              102.828427                       0                       0                       0
56                     110                     102                     100                       0                       0                       0
57                     112                     100              105.656854                       0                       0                       0
58                     112                     100              102.828427                       0                       0                       0
59                     112                     100                     100                       0                       0                       0
60                     114                     102              105.656854                       0                       0                       0
61                     114                     102              102.828427                       0                       0                       0
62                     114                     102                     100                       0                       0                       0
63                     116                     100              105.656854                       0                       0                       0
64                     116                     100              102.828427                       0                       0                       0
65                     116                     100                     100                       0                       0                       0
66                     118                     102              105.656854                       0                       0                       0
67                     118                     102              102.828427                       0                       0                       0
68                     118                     102                     100                       0                       0                       0
69                     120                     100              105.656854                       0                       0                       0
70                     120                     100              102.828427                       0                       0                       0
71                     120                     100                     100                       0                       0                       0
72                     122                     102              105.656854                       0                       0                       0
73                     122                     102              102.828427                       0                       0                       0
74                     122                     102                     100                       0                       0                       0
75                     124                     100              105.656854                       0                       0                       0
76                     124                     100              102.828427                       0                       0                       0
77                     124                     100                     100                       0                       0                       0
78                     126                     102              105.656854                       0                       0                       0
79                     126                     102              102.828427                       0                       0                       0
80                     126                     102                     100                       0                       0                       0
81                     128                     100              105.656854                       0                       0                       0
82                     128                     100              102.828427                       0                       0                       0
83                     128                     100                     100                       0                       0                       0
84                     130                     102              105.656854                       0                       0                       0
85                     130                     102              102.828427                       0                       0                       0
86                     130                     102                     100                       0                       0                       0
87                     100                     104              105.656854                       0                       0                       0
88                     100                     104              102.828427                       0                       0                       0
89                     100                     104                     100                       0                       0                       0
90                     102                     106              105.656854                       0                       0                       0
91                     102                     106              102.828427                       0                       0                       0
92                     102                     106                     100                       0                       0                       0
93                     104                     104              105.656854                       0                       0                       0
94                     104                     104              102.828427                       0                       0                       0
95                     104                     104                     100                       0                       0                       0
96                     106                     106              105.656854                       0                       0                       0
97                     106                     106              102.828427                       0                       0                       0
98                     106                     106                     100                       0                       0                       0
99                     108                     104              105.656854                       0                       0                       0
100                     108                     104              102.828427                       0                       0                       0
101                     108                     104                     100                       0                       0                       0
102                     110                     106              105.656854                       0                       0                       0
103                     110                     106              102.828427                       0                       0                       0
104                     110                     106                     100                       0                       0                       0
105                     112                     104              105.656854                       0                       0                       0
106                     112                     104              102.828427                       0                       0                       0
107                     112                     104                     100                       0                       0                       0
108                     114                     106              105.656854                       0                       0                       0
109                     114                     106              102.828427                       0                       0                       0
110                     114                     106                     100                       0                       0                       0
111                     116                     104              105.656854                       0                       0                       0
112                     116                     104              102.828427                       0                       0                       0
113                     116                     104                     100                       0                       0                       0
114                     118                     106              105.656854                       0                       0                       0
115                     118                     106              102.828427                       0                       0                       0
116                     118                     106                     100                       0                       0                       0
117                     120                     104              105.656854                       0                       0                       0
118                     120                     104              102.828427                       0                       0                       0
119                     120                     104                     100                       0                       0                       0
120                     122                     106              105.656854                       0                       0                       0
121                     122                     106              102.828427                       0                       0                       0
122                     122                     106                     100                       0                       0                       0
123                     124                     104              105.656854                       0                       0                       0
124                     124                     104              102.828427                       0                       0                       0
125                     124                     104                     100                       0                       0                       0
126                     126                     106              105.656854                       0                       0                       0
127                     126                     106              102.828427                       0                       0                       0
128                     126                     106                     100                       0                       0                       0
129                     128                     104              105.656854                       0                       0                       0
130                     128                     104              102.828427                       0                       0                       0
131                     128                     104                     100                       0                       0                       0
132                     130                     106              105.656854                       0                       0                       0
133                     130                     106              102.828427                       0                       0                       0
134                     130                     106                     100                       0                       0                       0
135                     100                     108              105.656854                       0                       0                       0
136                     100                     108              102.828427                       0                       0                       0
137                     100                     108                     100                       0                       0                       0
138                     102                     110              105.656854                       0                       0                       0
139                     102                     110              102.828427                       0                       0                       0
140                     102                     110                     100                       0                       0                       0
141                     104                     108              105.656854                       0                       0                       0
142                     104                     108              102.828427                       0                       0                       0
143                     104                     108                     100                       0                       0                       0
144                     106                     110              105.656854                       0                       0                       0
145                     106                     110              102.828427                       0                       0                       0
146                     106                     110                     100                       0                       0                       0
147                     108                     108              105.656854                       0                       0                       0
148                     108                     108              102.828427                       0                       0                       0
149                     108                     108                     100                       0                       0                       0
150                     110                     110              105.656854                       0                       0                       0
151                     110                     110              102.828427                       0                       0                       0
152                     110                     110                     100                       0                       0                       0
153                     112                     108              105.656854                       0                       0                       0
154                     112                     108              102.828427                       0                       0                       0
155                     112                     108                     100                       0                       0                       0
156                     114                     110              105.656854                       0                       0                       0
157                     114                     110              102.828427                       0                       0                       0
158                     114                     110                     100                       0                       0                       0
159                     116                     108              105.656854                       0                       0                       0
160                     116                     108              102.828427                       0                       0                       0
161                     116                     108                     100                       0                       0                       0
162                     118                     110              105.656854                       0                       0                       0
163                     118                     110              102.828427                       0                       0                       0
164                     118                     110                     100                       0                       0                       0
165                     120                     108              105.656854                       0                       0                       0
166                     120                     108              102.828427                       0                       0                       0
167                     120                     108                     100                       0                       0                       0
168                     122                     110              105.656854                       0                       0                       0
169                     122                     110              102.828427                       0                       0                       0
170                     122                     110                     100                       0                       0                       0
171                     124                     108              105.656854                       0                       0                       0
172                     124                     108              102.828427                       0                       0                       0
173                     124                     108                     100                       0                       0                       0
174                     126                     110              105.656854                       0                       0                       0
175                     126                     110              102.828427                       0                       0                       0
176                     126                     110                     100                       0                       0                       0
177                     128                     108              105.656854                       0                       0                       0
178                     128                     108              102.828427                       0                       0                       0
179                     128                     108                     100                       0                       0                       0
180                     130                     110              105.656854                       0                       0                       0
181                     130                     110              102.828427                       0                       0                       0
182                     130                     110                     100                       0                       0                       0
183                     100                     112              105.656854                       0                       0                       0
184                     100                     112              102.828427                       0                       0                       0
185                     100                     112                     100                       0                       0                       0
186                     102                     114              105.656854                       0                       0                       0
187                     102                     114              102.828427                       0                       0                       0
188                     102                     114                     100                       0                       0                       0
189                     104                     112              105.656854                       0                       0                       0
190                     104                     112              102.828427                       0                       0                       0
191                     104                     112                     100                       0                       0                       0
192                     106                     114              105.656854                       0                       0                       0
193                     106                     114              102.828427                       0                       0                       0
194                     106                     114                     100                       0                       0                       0
195                     108                     112              105.656854                       0                       0                       0
196                     108                     112              102.828427                       0                       0                       0
197                     108                     112                     100                       0                       0                       0
198                     110                     114              105.656854                       0                       0                       0
199                     110                     114              102.828427                       0                       0                       0
200                     110                     114                     100                       0                       0                       0
201                     112                     112              105.656854                       0                       0                       0