ITEM: TIMESTEP
0
ITEM: NUMBER OF ATOMS
422
ITEM: BOX BOUNDS ff ff ff
0.0000000000000000e+00 2.3200000000000000e+02
0.0000000000000000e+00 2.3200000000000000e+02
0.0000000000000000e+00 2.3200000000000000e+02
ITEM: ATOMS id xu yu zu fx fy fz
1        113.170783704167        116.008372326005        108.681705510328       -1555.70136204349       -439.340901305946        121.828234118639
2        118.809646820361        115.971388221924        108.639015980289        1577.15191268571         2862.4966412619       -499.724646645646
3        117.415873631791        116.001323750639        108.670382637874       -1922.04455040471        1174.79202353933        32.9529477893071
4        114.566307918703         115.98018782269        108.652089879754         2366.6928848303        2678.54033127205       -459.970687994725
5        116.723196760739        114.771846443133         108.67897559297         62.050081354417       -669.405766560639       -1.73322355358241
6        115.310915240683        114.784380858528        108.692942249816       -766.832655277708       -2194.23502222791        349.548291756316
7        115.314573029786        117.265253370146        108.699085164758       -863.321858634115       -2348.47707504287         120.87077188633
8        116.738796593358        117.264660998519        108.697060551937       -842.777961221107       -1908.79456953167        198.890896297219
9        114.521368440562        113.552057760979        108.660465519804       -7763.87893548109        26982.7234030061       -1159.46427714186
10        117.477431955655         113.56827987681        108.673732472924        2845.70997196335        17154.8517787178        458.215267872052
11        114.553318445536        118.461800546656        108.697308894763       -24723.6870717362       -63128.3192238621        4350.90726333056
12         117.47683769698        118.445478400504        108.678031586325        7189.84376005536       -21393.0698878465        461.899711448446
13         113.15212613986        113.587259467522        108.681668879624        4617.52737198016        11612.3541657178        502.702642292955
14        113.151315853886        118.433421808047        108.685721045773        12569.0591126293       -17024.0684138634        476.579801051467
15        118.838325607232        113.555549674636        108.644211381064       -9319.66483868621        22444.6628521156       -1828.51774459578
16        118.838981696053        118.403178395137        108.649729924557       -12922.8264736871       -27670.6670325544        485.453481776795
17         112.47274386032        117.240267965821        108.702802022181        -3746.2642315779       -2454.36481258755        356.223999899997
18        112.440312463451        114.782363219774        108.667937404711       -2116.28970821715        1907.27593036452       -13.9249793821458
19        119.567416818894        114.799222734474        108.677649622202        966.314584767213       -2313.13079993788        254.397229368993
20        119.570598704235        117.227877972167        108.683264729207       -882.457863626891       -3543.92422348353        375.127258105117
21        120.993640545169        114.862940608367        108.695359522545       -4905.14668343152        7715.96704677377        786.986981301415
22        120.968908057546        117.174404924871        108.672970695295       -6646.76942514479        -11119.429085311       -102.107645902528
23        110.996244511159         114.79007766749        108.632472837998        16947.8656320208        26261.0899696971       -1653.71822340419
24        111.011763428993        117.141793388121        108.650335415848        7722.04630315205       -7419.57307930863       -804.093503970472
25        121.621196832721        116.026467450099        108.691324371981        6498.19814246306       -18.0688512457763        73.6912538314128
26        110.396165596849        115.990225001042        108.666329022378        -6121.9860040418       -1998.52101080719        233.091651457082
27        121.622504608771        118.199230703873        108.670162562947        10668.6042203577        16726.2315542833       -45.8825121150135
28        121.595545108378        113.780064391373        108.638796821678        7414.05356302059       -13333.8436860297       -696.373123338822
29        110.396250020542         118.21106075711        108.693289269814       -8084.91565433945        14041.7375336909        563.888012973394
30        110.383969670262        113.806573596731        108.676602680002       -19380.6446042837       -31129.0531679422         1396.5218789579
31        112.610192267074        112.625780244924        108.667179444831       -10257.0852993089       -18197.0247264858       -274.140388172514
32        112.597979757784        119.355359578394        108.661730257184       -15061.3860587557        25095.5616417415       -653.027625216875
33        119.417257424236        112.659207625915        108.693797891284        17337.7782871746        -26844.369346705        1484.83549077027
34        119.342240489371        119.325982542618        108.625544282229        18822.3305495981        34511.9197988549       -904.608210505786
35        114.994373318991        112.601047310004        108.688940746124        15262.8054350737       -30685.3929897896        918.664803320853
36        114.937974387712        119.384271425171         108.63940327903        28565.8404228894        68499.5206838264       -4299.71466296113
37        117.023595759453        112.576628745171        108.662457835432        -10161.958138943       -22200.5734281012       -252.328049695261
38        117.020233409403        119.412889442457        108.665956951872       -13388.2328571733        28363.9217456676       -353.948365010184
39                     100                     100              105.656854                       0                       0                       0
40                     100                     100              102.828427                       0                       0                       0
41                     100                     100                     100                       0                       0                       0
42                     102                     102              105.656854                       0                       0                       0
43                     102                     102              102.828427                       0                       0                       0
44                     102                     102                     100                       0                       0                       0
45                     104                     100              105.656854                       0                       0                       0
46                     104                     100              102.828427                       0                       0                       0
47                     104                     100                     100                       0                       0                       0
48                     106                     102              105.656854                       0                       0                       0
49                     106                     102              102.828427                       0                       0                       0
50                     106                     102                     100                       0                       0                       0
51                     108                     100              105.656854                       0                       0                       0
52                     108                     100              102.828427                       0                       0                       0
53                     108                     100                     100                       0                       0                       0
54                     110                     102              105.656854                       0                       0                       0
55                     110                     102              102.828427                       0                       0                       0
56                     110                     102                     100                       0                       0                       0
57                     112                     100              105.656854                       0                       0                       0
58                     112                     100              102.828427                       0                       0                       0
59                     112                     100                     100                       0                       0                       0
60                     114                     102              105.656854                       0                       0                       0
61                     114                     102              102.828427                       0                       0                       0
62                     114                     102                     100                       0                       0                       0
63                     116                     100              105.656854                       0                       0                       0
64                     116                     100              102.828427                       0                       0                       0
65                     116                     100                     100                       0                       0                       0
66                     118                     102              105.656854                       0                       0                       0
67                     118                     102              102.828427                       0                       0                       0
68                     118                     102                     100                       0                       0                       0
69                     120                     100              105.656854                       0                       0                       0
70                     120                     100              102.828427                       0                       0                       0
71                     120                     100                     100                       0                       0                       0
72                     122                     102              105.656854                       0                       0                       0
73                     122                     102              102.828427                       0                       0                       0
74                     122                     102                     100                       0                       0                       0
75                     124                     100              105.656854                       0                       0                       0
76                     124                     100              102.828427                       0                       0                       0
77                     124                     100                     100                       0                       0                       0
78                     126                     102              105.656854                       0                       0                       0
79                     126                     102              102.828427                       0                       0                       0
80                     126                     102                     100                       0                       0                       0
81                     128                     100              105.656854                       0                       0                       0
82                     128                     100              102.828427                       0                       0                       0
83                     128                     100                     100                       0                       0                       0
84                     130                     102              105.656854                       0                       0                       0
85                     130                     102              102.828427                       0                       0                       0
86                     130                     102                     100                       0                       0                       0
87                     100                     104              105.656854                       0                       0                       0
88                     100                     104              102.828427                       0                       0                       0
89                     100                     104                     100                       0                       0                       0
90                     102                     106              105.656854                       0                       0                       0
91                     102                     106              102.828427                       0                       0                       0
92                     102                     106                     100                       0                       0                       0
93                     104                     104              105.656854                       0                       0                       0
94                     104                     104              102.828427                       0                       0                       0
95                     104                     104                     100                       0                       0                       0
96                     106                     106              105.656854                       0                       0                       0
97                     106                     106              102.828427                       0                       0                       0
98                     106                     106                     100                       0                       0                       0
99                     108                     104              105.656854                       0                       0                       0
100                     108                     104              102.828427                       0                       0                       0
101                     108                     104                     100                       0                       0                       0
102                     110                     106              105.656854                       0                       0                       0
103                     110                     106              102.828427                       0                       0                       0
104                     110                     106                     100                       0                       0                       0
105                     112                     104              105.656854                       0                       0                       0
106                     112                     104              102.828427                       0                       0                       0
107                     112                     104                     100                       0                       0                       0
108                     114                     106              105.656854                       0                       0                       0
109                     114                     106              102.828427                       0                       0                       0
110                     114                     106                     100                       0                       0                       0
111                     116                     104              105.656854                       0                       0                       0
112                     116                     104              102.828427                       0                       0                       0
113                     116                     104                     100                       0                       0                       0
114                     118                     106              105.656854                       0                       0                       0
115                     118                     106              102.828427                       0                       0                       0
116                     118                     106                     100                       0                       0                       0
117                     120                     104              105.656854                       0                       0                       0
118                     120                     104              102.828427                       0                       0                       0
119                     120                     104                     100                       0                       0                       0
120                     122                     106              105.656854                       0                       0                       0
121                     122                     106              102.828427                       0                       0                       0
122                     122                     106                     100                       0                       0                       0
123                     124                     104              105.656854                       0                       0                       0
124                     124                     104              102.828427                       0                       0                       0
125                     124                     104                     100                       0                       0                       0
126                     126                     106              105.656854                       0                       0                       0
127                     126                     106              102.828427                       0                       0                       0
128                     126                     106                     100                       0                       0                       0
129                     128                     104              105.656854                       0                       0                       0
130                     128                     104              102.828427                       0                       0                       0
131                     128                     104                     100                       0                       0                       0
132                     130                     106              105.656854                       0                       0                       0
133                     130                     106              102.828427                       0                       0                       0
134                     130                     106                     100                       0                       0                       0
135                     100                     108              105.656854                       0                       0                       0
136                     100                     108              102.828427                       0                       0                       0
137                     100                     108                     100                       0                       0                       0
138                     102                     110              105.656854                       0                       0                       0
139                     102                     110              102.828427                       0                       0                       0
140                     102                     110                     100                       0                       0                       0
141                     104                     108              105.656854                       0                       0                       0
142                     104                     108              102.828427                       0                       0                       0
143                     104                     108                     100                       0                       0                       0
144                     106                     110              105.656854                       0                       0                       0
145                     106                     110              102.828427                       0                       0                       0
146                     106                     110                     100                       0                       0                       0
147                     108                     108              105.656854                       0                       0                       0
148                     108                     108              102.828427                       0                       0                       0
149                     108                     108                     100                       0                       0                       0
150                     110                     110              105.656854                       0                       0                       0
151                     110                     110              102.828427                       0                       0                       0
152                     110                     110                     100                       0                       0                       0
153                     112                     108              105.656854                       0                       0                       0
154                     112                     108              102.828427                       0                       0                       0
155                     112                     108                     100                       0                       0                       0
156                     114                     110              105.656854                       0                       0                       0
157                     114                     110              102.828427                       0                       0                       0
158                     114                     110                     100                       0                       0                       0
159                     116                     108              105.656854                       0                       0                       0
160                     116                     108              102.828427                       0                       0                       0
161                     116                     108                     100                       0                       0                       0
162                     118                     110              105.656854                       0                       0                       0
163                     118                     110              102.828427                       0                       0                       0
164                     118                     110                     100                       0                       0                       0
165                     120                     108              105.656854                       0                       0                       0
166                     120                     108              102.828427                       0                       0                       0
167                     120                     108                     100                       0                       0                       0
168                     122                     110              105.656854                       0                       0                       0
169                     122                     110              102.828427                       0                       0                       0
170                     122                     110                     100                       0                       0                       0
171                     124                     108              105.656854                       0                       0                       0
172                     124                     108              102.828427                       0                       0                       0
173                     124                     108                     100                       0                       0                       0
174                     126                     110              105.656854                       0                       0                       0
175                     126                     110              102.828427                       0                       0                       0
176                     126                     110                     100                       0                       0                       0
177                     128                     108              105.656854                       0                       0                       0
178                     128                     108              102.828427                       0                       0                       0
179                     128                     108                     100                       0                       0                       0
180                     130                     110              105.656854                       0                       0                       0
181                     130                     110              102.828427                       0                       0                       0
182                     130                     110                     100                       0                       0                       0
183                     100                     112              105.656854                       0                       0                       0
184                     100                     112              102.828427                       0                       0                       0
185                     100                     112                     100                       0                       0                       0
186                     102                     114              105.656854                       0                       0                       0
187                     102                     114              102.828427                       0                       0                       0
188                     102                     114                     100                       0                       0                       0
189                     104                     112              105.656854                       0                       0                       0
190                     104                     112              102.828427                       0                       0                       0
191                     104                     112                     100                       0                       0                       0
192                     106                     114              105.656854                       0                       0                       0
193                     106                     114              102.828427                       0                       0                       0
194                     106                     114                     100                       0                       0                       0
195                     108                     112              105.656854                       0                       0                       0
196                     108                     112              102.828427                       0                       0                       0
197                     108                     112                     100                       0                       0                       0
198                     110                     114              105.656854                       0                       0                       0
199                     110                     114              102.828427                       0                       0                       0
200                     110                     114                     100                       0                       0                       0
201                     112                     112              105.656854                       0                       0                       0