ITEM: TIMESTEP
0
ITEM: NUMBER OF ATOMS
422
ITEM: BOX BOUNDS pp pp pp
0.0000000000000000e+00 3.2000000000000000e+01
0.0000000000000000e+00 3.2000000000000000e+01
0.0000000000000000e+00 3.2000000000000000e+01
ITEM: ATOMS id xu yu zu fx fy fz
1        13.1024185253885        15.9400071472272        8.61333633154993           5.45808043513        5.36584507503095        1.00090777718091
2         18.870914930868        16.0326563324312        8.70028009079685       -5.10643500822342       -4.92248702155395      -0.872245211452891
3        17.4035488764439        15.9889989952919        8.65805388252698        1.87882660367663       0.628042196721052       0.393262462201889
4         14.599598815829        16.0134787198158        8.68537677687996       -3.93009831699412       -2.90106748208232      -0.800688050572998
5        16.6798486018903        14.7284982842848        8.63562343412114         2.7191965398308        1.90397467447809       0.411155641433356
6        15.3025748324393        14.7760404502838        8.68459784157186       -1.78432368909837       -1.16269029524992      -0.232379316127173
7        15.2711194517537        17.2217997921138         8.6556275867261        2.11325289313885         2.7297993288893       0.610807834027832
8        16.7159364845275        17.2418008896884        8.67419644310591       -3.36373488478368       -3.54216949006498      -0.644112614266304
9        14.5410205717848        13.5717098922026        8.68011365102745       0.837545168472103        1.15617635782111       0.297282233432168
10        17.4278916067001        13.5187395278548        8.62418812396878      0.0501713808290189       0.435626827166709     -0.0772937521016673
11        14.5403313953027        18.4488134964229        8.68431784452983       -1.74596740918096       -2.49589759442844      -0.306769066046674
12        17.4154656464456        18.3841063499693        8.61665553579044        5.10781070899559        5.77974397523603          1.153475768626
13         13.172160310693        13.6072936383549        8.70169905045729       -3.48561421714203       -4.26733570031144      -0.663499760110298
14        13.1513750534134         18.433481007574        8.68577624529971       -1.48314535020346       -2.30255811211198      -0.272621416089082
15        18.8096534574489        13.5268775248529        8.61553523128083        2.10807844580575        2.95082724859589       0.480394148594124
16        18.8710339488858          18.43523064797        8.68177817738957       -3.86136473566132       -3.23203483045908      -0.850808578340411
17        12.4130731985274        17.1805973040283         8.6431273603884        1.09964785493024       0.657138992138822      0.0587727868500286
18        12.4426326822583        14.7846834385822        8.67025362351873      -0.456770957702245      -0.438756867754078      0.0798042882408701
19        19.5579067291732         14.789712644753        8.66813553248096       -1.83867167847582       -2.19882403364789      -0.139676673536942
20         19.523648083127        17.1809273510583        8.63631010809877        2.92963850884073        3.78091298080173       0.592159375882204
21        20.9493430614336         14.818643124632        8.65105803880957      -0.267917366427261      -0.993607734925832     0.00412056438317923
22        20.9168538778015        17.1223507451266        8.62091251555077        2.82952775421323        3.32968224128534       0.311061724710599
23        11.0476294570137        14.8414626133452        8.68385378385265       -2.31523196580173       -2.47911127345864      -0.772819436277512
24        11.0137588135873        17.1437887727155        8.65232680044188       -1.89503061473445      -0.274875349623496      -0.346183797622552
25        21.5528003742774        15.9580709916556        8.62292391353788        1.19007971595849        1.63809507394908      0.0376250254014861
26        10.3429038484882        15.9369632526811        8.61306327401662        3.44761427393721        4.98234571242879       0.817653192797448
27        21.6076000060351        18.1843261011374        8.65525396021107       -1.85819842859071       -2.77514873793675      -0.281073928539942
28        21.6219062768015        13.8064255597961        8.66515399010134      -0.305696427510624      -0.495227478401652     -0.0591845830089604
29        10.3990627765132         18.213873513082        8.69609802578575      -0.419564317429225       -1.49962607021645      -0.166456985105517
30        10.4057831027882        13.8283870292574        8.69841211252767      -0.018974727630153       -1.65260825787816       0.164187196457755
31         12.564639520935        12.5802274987857        8.62162269869238        2.05245658813682        2.80707424835205       0.497199930410026
32        12.5982580295037        19.3556378501137        8.66200452890445       0.177188460756947       0.402791409915315       0.103557863938806
33        19.3597344144922        12.6016846161716        8.63627088154027      -0.141338893471517      -0.339968469676724      -0.131212486237601
34        19.3887373101881        19.3724793634347        8.67203710304575        0.24141126203771       0.343550064066834       0.052753654908688
35         15.003526188777        12.6102001797896        8.69808961591006      -0.631746811114624      -0.386264645353018     -0.0784120930277032
36        14.9423784754079        19.3886755128668        8.64380336672592        1.15536352501294        1.37533431422428      0.0556920081498525
37        16.9886634508358        12.5416964365536        8.62752152681431       0.215229791490187      -0.128971544958339     -0.0399405360073655
38        17.0575260099827        19.4501820430362        8.70324555245167      -0.701294111017506       -1.77772973100827      -0.386495193155625
39                       0                       0                5.656854                       0                       0                       0
40                       0                       0                2.828427                       0                       0                       0
41                       0                       0                       0                       0                       0                       0
42                       2                       2                5.656854                       0                       0                       0
43                       2                       2                2.828427                       0                       0                       0
44                       2                       2                       0                       0                       0                       0
45                       4                       0                5.656854                       0                       0                       0
46                       4                       0                2.828427                       0                       0                       0
47                       4                       0                       0                       0                       0                       0
48                       6                       2                5.656854                       0                       0                       0
49                       6                       2                2.828427                       0                       0                       0
50                       6                       2                       0                       0                       0                       0
51                       8                       0                5.656854                       0                       0                       0
52                       8                       0                2.828427                       0                       0                       0
53                       8                       0                       0                       0                       0                       0
54                      10                       2                5.656854                       0                       0                       0
55                      10                       2                2.828427                       0                       0                       0
56                      10                       2                       0                       0                       0                       0
57                      12                       0                5.656854                       0                       0                       0
58                      12                       0                2.828427                       0                       0                       0
59                      12                       0                       0                       0                       0                       0
60                      14                       2                5.656854                       0                       0                       0
61                      14                       2                2.828427                       0                       0                       0
62                      14                       2                       0                       0                       0                       0
63                      16                       0                5.656854                       0                       0                       0
64                      16                       0                2.828427                       0                       0                       0
65                      16                       0                       0                       0                       0                       0
66                      18                       2                5.656854                       0                       0                       0
67                      18                       2                2.828427                       0                       0                       0
68                      18                       2                       0                       0                       0                       0
69                      20                       0                5.656854                       0                       0                       0
70                      20                       0                2.828427                       0                       0                       0
71                      20                       0                       0                       0                       0                       0
72                      22                       2                5.656854                       0                       0                       0
73                      22                       2                2.828427                       0                       0                       0
74                      22                       2                       0                       0                       0                       0
75                      24                       0                5.656854                       0                       0                       0
76                      24                       0                2.828427                       0                       0                       0
77                      24                       0                       0                       0                       0                       0
78                      26                       2                5.656854                       0                       0                       0
79                      26                       2                2.828427                       0                       0                       0
80                      26                       2                       0                       0                       0                       0
81                      28                       0                5.656854                       0                       0                       0
82                      28                       0                2.828427                       0                       0                       0
83                      28                       0                       0                       0                       0                       0
84                      30                       2                5.656854                       0                       0                       0
85                      30                       2                2.828427                       0                       0                       0
86                      30                       2                       0                       0                       0                       0
87                       0                       4                5.656854                       0                       0                       0
88                       0                       4                2.828427                       0                       0                       0
89                       0                       4                       0                       0                       0                       0
90                       2                       6                5.656854                       0                       0                       0
91                       2                       6                2.828427                       0                       0                       0
92                       2                       6                       0                       0                       0                       0
93                       4                       4                5.656854                       0                       0                       0
94                       4                       4                2.828427                       0                       0                       0
95                       4                       4                       0                       0                       0                       0
96                       6                       6                5.656854                       0                       0                       0
97                       6                       6                2.828427                       0                       0                       0
98                       6                       6                       0                       0                       0                       0
99                       8                       4                5.656854                       0                       0                       0
100                       8                       4                2.828427                       0                       0                       0
101                       8                       4                       0                       0                       0                       0
102                      10                       6                5.656854                       0                       0                       0
103                      10                       6                2.828427                       0                       0                       0
104                      10                       6                       0                       0                       0                       0
105                      12                       4                5.656854                       0                       0                       0
106                      12                       4                2.828427                       0                       0                       0
107                      12                       4                       0                       0                       0                       0
108                      14                       6                5.656854                       0                       0                       0
109                      14                       6                2.828427                       0                       0                       0
110                      14                       6                       0                       0                       0                       0
111                      16                       4                5.656854                       0                       0                       0
112                      16                       4                2.828427                       0                       0                       0
113                      16                       4                       0                       0                       0                       0
114                      18                       6                5.656854                       0                       0                       0
115                      18                       6                2.828427                       0                       0                       0
116                      18                       6                       0                       0                       0                       0
117                      20                       4                5.656854                       0                       0                       0
118                      20                       4                2.828427                       0                       0                       0
119                      20                       4                       0                       0                       0                       0
120                      22                       6                5.656854                       0                       0                       0
121                      22                       6                2.828427                       0                       0                       0
122                      22                       6                       0                       0                       0                       0
123                      24                       4                5.656854                       0                       0                       0
124                      24                       4                2.828427                       0                       0                       0
125                      24                       4                       0                       0                       0                       0
126                      26                       6                5.656854                       0                       0                       0
127                      26                       6                2.828427                       0                       0                       0
128                      26                       6                       0                       0                       0                       0
129                      28                       4                5.656854                       0                       0                       0
130                      28                       4                2.828427                       0                       0                       0
131                      28                       4                       0                       0                       0                       0
132                      30                       6                5.656854                       0                       0                       0
133                      30                       6                2.828427                       0                       0                       0
134                      30                       6                       0                       0                       0                       0
135                       0                       8                5.656854                       0                       0                       0
136                       0                       8                2.828427                       0                       0                       0
137                       0                       8                       0                       0                       0                       0
138                       2                      10                5.656854                       0                       0                       0
139                       2                      10                2.828427                       0                       0                       0
140                       2                      10                       0                       0                       0                       0
141                       4                       8                5.656854                       0                       0                       0
142                       4                       8                2.828427                       0                       0                       0
143                       4                       8                       0                       0                       0                       0
144                       6                      10                5.656854                       0                       0                       0
145                       6                      10                2.828427                       0                       0                       0
146                       6                      10                       0                       0                       0                       0
147                       8                       8                5.656854                       0                       0                       0
148                       8                       8                2.828427                       0                       0                       0
149                       8                       8                       0                       0                       0                       0
150                      10                      10                5.656854                       0                       0                       0
151                      10                      10                2.828427                       0                       0                       0
152                      10                      10                       0                       0                       0                       0
153                      12                       8                5.656854                       0                       0                       0
154                      12                       8                2.828427                       0                       0                       0
155                      12                       8                       0                       0                       0                       0
156                      14                      10                5.656854                       0                       0                       0
157                      14                      10                2.828427                       0                       0                       0
158                      14                      10                       0                       0                       0                       0
159                      16                       8                5.656854                       0                       0                       0
160                      16                       8                2.828427                       0                       0                       0
161                      16                       8                       0                       0                       0                       0
162                      18                      10                5.656854                       0                       0                       0
163                      18                      10                2.828427                       0                       0                       0
164                      18                      10                       0                       0                       0                       0
165                      20                       8                5.656854                       0                       0                       0
166                      20                       8                2.828427                       0                       0                       0
167                      20                       8                       0                       0                       0                       0
168                      22                      10                5.656854                       0                       0                       0
169                      22                      10                2.828427                       0                       0                       0
170                      22                      10                       0                       0                       0                       0
171                      24                       8                5.656854                       0                       0                       0
172                      24                       8                2.828427                       0                       0                       0
173                      24                       8                       0                       0                       0                       0
174                      26                      10                5.656854                       0                       0                       0
175                      26                      10                2.828427                       0                       0                       0
176                      26                      10                       0                       0                       0                       0
177                      28                       8                5.656854                       0                       0                       0
178                      28                       8                2.828427                       0                       0                       0
179                      28                       8                       0                       0                       0                       0
180                      30                      10                5.656854                       0                       0                       0
181                      30                      10                2.828427                       0                       0                       0
182                      30                      10                       0                       0                       0                       0
183                       0                      12                5.656854                       0                       0                       0
184                       0                      12                2.828427                       0                       0                       0
185                       0                      12                       0                       0                       0                       0
186                       2                      14                5.656854                       0                       0                       0
187                       2                      14                2.828427                       0                       0                       0
188                       2                      14                       0                       0                       0                       0
189                       4                      12                5.656854                       0                       0                       0
190                       4                      12                2.828427                       0                       0                       0
191                       4                      12                       0                       0                       0                       0
192                       6                      14                5.656854                       0                       0                       0
193                       6                      14                2.828427                       0                       0                       0
194                       6                      14                       0                       0                       0                       0
195                       8                      12                5.656854                       0                       0                       0
196                       8                      12                2.828427                       0                       0                       0
197                       8                      12                       0                       0                       0                       0
198                      10                      14                5.656854                       0                       0                       0
199                      10                      14                2.828427                       0                       0                       0
200                      10                      14                       0                       0                       0                       0
201                      12                      12                5.656854                       0                       0                       0