ITEM: TIMESTEP
0
ITEM: NUMBER OF ATOMS
422
ITEM: BOX BOUNDS pp pp pp
0.0000000000000000e+00 3.2000000000000000e+01
0.0000000000000000e+00 3.2000000000000000e+01
0.0000000000000000e+00 3.2000000000000000e+01
ITEM: ATOMS id xu yu zu fx fy fz
1        13.1219213391951        15.9595099610338        8.63283914535653      -0.417065976221083      0.0358836734660346      -0.173926482001129
2        18.8567212633246        16.0184626648879        8.68608642325352       -4.69082067262647       -5.05949932180965       -0.92458096345331
3        17.3672568414443        15.9527069602923        8.62176184752733        5.14822331596528        4.56375630475463        1.34053260525301
4        14.5531322027815        15.9670121067683        8.63891016383243        1.70166518151711        1.76167289965754       0.381817174482708
5        16.6867859295382        14.7354356119328        8.64256076176905       -2.15964926678316       -1.97031046105375      -0.543940380206984
6        15.2471131097707        14.7205787276152        8.62913611890328        3.24476610750274        3.94577554677652       0.626902811822702
7        15.3099907018712        17.2606710422314        8.69449883684363       -3.44653268468606       -4.00099224677564      -0.749475312550498
8         16.738214944348         17.264079349509        8.69647490292649       -5.01218019716682       -5.31750872631353      -0.817215580547152
9        14.5602341340651        13.5909234544828        8.69932721330767       -4.95820949833403       -5.11364019525532      -0.660376635323219
10        17.4173425974556        13.5081905186103        8.61363911472422        3.76612233232759        3.91454270482071       0.635409470575225
11        14.4817030499848        18.3901851511049        8.62568949921192         2.5737576942552        3.12639929845105       0.751285762008671
12        17.4214536082604        18.3900943117841        8.62264349760517        2.52199442082919        3.04141191024742       0.428120153939679
13        13.1158810756187        13.5510144032806        8.64541981538297        1.33219399357895      -0.425025305602132       0.338327176329416
14        13.1010540939711        18.3831600481318        8.63545528585746      0.0157543826749659     -0.0424915578792731       0.133250339374139
15        18.8405296512533        13.5577537186574         8.6464114250853      0.0516053924030094         1.6340890310229       0.290497831402925
16        18.8005938459184        18.3647905450026        8.61133807442213        2.11161267799295        2.53850089258666       0.369916711179037
17        12.3921998169384        17.1597239224393        8.62225397879938        3.43439423986764        2.98821084472972       0.666690831275778
18        12.4080771094013        14.7501278657252        8.63569805066173      -0.761339555514667      -0.329801360215744       -0.28067716216146
19        19.5731003214086        14.8049062369884        8.68332912471631       -3.62471222133868       -2.96561011550496      -0.553351124353591
20        19.5080131508817         17.165292418813        8.62067517585341        2.26750780669274        2.37153790162818        0.15947847916792
21        20.9273638887376         14.796663951936        8.62907886611359        4.87130727887588        4.16362496586106        1.09770232448746
22        20.9226414735144        17.1281383408395        8.62670011126372        4.16600549094076        5.38967061241566        0.96068344256135
23        10.9832119571321        14.7770451134636        8.61943628397104        6.27897927821898        7.72564004572337       0.255991384085577
24        11.0563241323169        17.1863540914451        8.69489211917151       -5.29052636080805       -5.81798765375844       -1.13255849205639
25        21.6045287994246        16.0097994168028        8.67465233868512        -3.3696279195736       -4.62748264962976       -0.93481126697466
26        10.3708419764703        15.9649013806631        8.64100140199865        1.16737673979378        2.82317037767495       0.540018223695563
27        21.6198095523782        18.1965356474805        8.66746350655416        -3.1044731413099       -2.78893429614472      -0.290834023763924
28        21.5821370332137        13.7666563162083        8.62538474651355      -0.382405943328121      -0.183584962370364     -0.0400366557009836
29        10.4007595632069        18.2155702997757        8.69779481247938       0.517847060303956       0.340554308823091       0.253879856598401
30        10.4133014240656        13.8359053505349        8.70593043380515       -5.07065572046149       -6.48875339560471       0.229182153054052
31        12.5531554293282        12.5687434071789        8.61013860708556        1.06762516552498        1.12314942741996       0.106647279247123
32        12.6360665798282        19.3934464004381        8.69981307922886      -0.235549701746658       -1.09814476028693      -0.204631594015605
33        19.4087077697042        12.6506579713837        8.68524423675236      -0.246870646830558       -0.64302839929562      -0.108652839753707
34         19.385752017967        19.3694940712136        8.66905181082462       -1.40867426338568       -2.04866382120839      -0.348224703600187
35         14.950156538378        12.5568305293907        8.64471996551108       0.443036294598554         1.0829988034824       0.240910774169647
36        14.9579650803277        19.4042621177865         8.6593899716457       -1.06959822867664       -1.07590810062151      -0.127751602424756
37        17.0404348073813        12.5934677930991        8.67929288335982       -1.47797849370116         -2.291575230725     -0.0653979633634689
38        16.9924545229928        19.3851105560463        8.63817406546175      0.0313139422588708      -0.268103398263536      -0.019953876975081
39                       0                       0                5.656854                       0                       0                       0
40                       0                       0                2.828427                       0                       0                       0
41                       0                       0                       0                       0                       0                       0
42                       2                       2                5.656854    4.94783547962908e-10    6.96065782920786e-10    1.79315203376984e-10
43                       2                       2                2.828427                       0                       0                       0
44                       2                       2                       0                       0                       0                       0
45                       4                       0                5.656854                       0                       0                       0
46                       4                       0                2.828427                       0                       0                       0
47                       4                       0                       0                       0                       0                       0
48                       6                       2                5.656854    1.80169513816789e-08    3.59189127321307e-08     9.2807157222652e-09
49                       6                       2                2.828427    6.30115848753817e-10    1.29899953641735e-09     6.5500102226106e-10
50                       6                       2                       0                       0                       0                       0
51                       8                       0                5.656854    6.90513368727958e-10    5.08140766360766e-11    4.81716107326968e-10
52                       8                       0                2.828427    4.17120325398236e-10    8.27843924940806e-11    5.29013334216159e-10
53                       8                       0                       0                       0                       0                       0
54                      10                       2                5.656854    7.96490212999714e-08    3.06866835439636e-07    8.09938072090393e-08
55                      10                       2                2.828427    2.87484913270167e-09    1.11155213537393e-08    5.70816905570089e-09
56                      10                       2                       0    1.01880847537573e-09    4.28020251829301e-09    3.33337814406063e-09
57                      12                       0                5.656854    1.35319108448201e-09    2.52367027394019e-10    2.22987587333115e-09
58                      12                       0                2.828427    1.48857273137542e-09   -6.84597930903377e-10    4.80304153933834e-09
59                      12                       0                       0                       0                       0                       0
60                      14                       2                5.656854    4.65097139716061e-08    7.47376895360404e-07    2.00369328328606e-07
61                      14                       2                2.828427    1.59779119798448e-09    2.59528116062422e-08    1.34921788844811e-08
62                      14                       2                       0    7.66051474957776e-10    1.10304963660701e-08    8.64733304468049e-09
63                      16                       0                5.656854   -4.08658156452812e-11    3.83398981769686e-10    3.28107575863331e-09
64                      16                       0                2.828427   -4.63790508625685e-11     3.3011022686729e-10    7.21842189938362e-09
65                      16                       0                       0                       0                       0                       0
66                      18                       2                5.656854   -4.98639204340016e-08    7.35776696620578e-07    1.97047323882882e-07
67                      18                       2                2.828427   -1.70876606188266e-09     2.5597591125421e-08     1.3288307120159e-08
68                      18                       2                       0   -8.28552476832284e-10     1.0886022260907e-08    8.51754374785954e-09
69                      20                       0                5.656854   -1.34773779954375e-09      2.523048593025e-10    2.16445177495347e-09
70                      20                       0                2.828427   -1.51014381244617e-09    1.31099749063058e-09    4.65419464931146e-09
71                      20                       0                       0                       0                       0                       0
72                      22                       2                5.656854   -7.67655891243924e-08    2.96319554179759e-07    7.81000988802783e-08
73                      22                       2                2.828427   -2.77955298372968e-09    1.07906338892425e-08    5.52199596636346e-09
74                      22                       2                       0   -9.44325642965858e-10    4.10939067995722e-09    3.18270341632174e-09
75                      24                       0                5.656854   -6.59264385184774e-10    4.28996616634183e-11    4.63746231299161e-10
76                      24                       0                2.828427   -3.81407199216045e-10   -1.28127448032746e-11    4.84628069629333e-10
77                      24                       0                       0                       0                       0                       0
78                      26                       2                5.656854   -1.76090881491212e-08    3.55732720937394e-08    9.14015898626831e-09
79                      26                       2                2.828427    -6.1572653297947e-10    1.29465651031626e-09    6.49238043366802e-10
80                      26                       2                       0                       0                       0                       0
81                      28                       0                5.656854                       0                       0                       0
82                      28                       0                2.828427                       0                       0                       0
83                      28                       0                       0                       0                       0                       0
84                      30                       2                5.656854   -5.51584780125229e-10    7.71016178642153e-10     1.9451449679939e-10
85                      30                       2                2.828427                       0                       0                       0
86                      30                       2                       0                       0                       0                       0
87                       0                       4                5.656854   -1.44409969857796e-11    2.88731428617959e-10    8.85940532265991e-11
88                       0                       4                2.828427                       0                       0                       0
89                       0                       4                       0                       0                       0                       0
90                       2                       6                5.656854    9.61706890389011e-08    8.79710034435524e-08    3.27537243877453e-08
91                       2                       6                2.828427    3.61983925854166e-09    3.26960694122979e-09    2.35767135905743e-09
92                       2                       6                       0    9.51054289438159e-10    8.85784428683448e-10    9.84133583867184e-10
93                       4                       4                5.656854    1.10091507628462e-08    1.48728589561057e-08    4.54102862347537e-09
94                       4                       4                2.828427    1.33959543468558e-08     1.8294629612212e-08    1.07823318153226e-08
95                       4                       4                       0    1.40639093509366e-10    1.90915625155193e-10    1.74570310774073e-10
96                       6                       6                5.656854     3.2787817777134e-06     4.7784607195932e-06    1.82578107998457e-06
97                       6                       6                2.828427    9.12099585459376e-08    1.31176465700455e-07    9.65252373530708e-08
98                       6                       6                       0    3.56263222332949e-08    5.05620024933735e-08     5.5200067182183e-08
99                       8                       4                5.656854    1.32341203048474e-07    3.05724329907741e-07    9.58407028350701e-08
100                       8                       4                2.828427    1.34983836016907e-07    3.09213437289643e-07    1.87354456534108e-07
101                       8                       4                       0    1.82136103536384e-09    4.23878674423336e-09    3.80845312724502e-09
102                      10                       6                5.656854    2.24156833710741e-05    6.59186372300299e-05    2.65313467906379e-05
103                      10                       6                2.828427    4.63518129773558e-07    1.34331737058809e-06    1.03467003303389e-06
104                      10                       6                       0    1.39749682632402e-07    3.97052916632394e-07    4.46751243781224e-07
105                      12                       4                5.656854     2.6129279950075e-07    1.59699285066577e-06    5.15902206657808e-07
106                      12                       4                2.828427    2.35725691979358e-07    1.39467402815672e-06     8.6853280129124e-07
107                      12                       4                       0    2.97884403911837e-09    1.70486138223407e-08    1.56245399812759e-08
108                      14                       6                5.656854     1.1401761315978e-05     0.00018483107697392    7.67491996396032e-05
109                      14                       6                2.828427    2.40434443936989e-07    3.35003710854858e-06    2.65422536339775e-06
110                      14                       6                       0    7.37963387945562e-08    8.92757711289906e-07     1.0287252875507e-06
111                      16                       4                5.656854   -6.42364977704459e-09    2.35198114449607e-06     7.6692441182155e-07
112                      16                       4                2.828427   -5.15922937260808e-09    2.02015032367464e-06    1.26763567580407e-06
113                      16                       4                       0   -4.85815327818421e-11    2.40451844928956e-08    2.22325365660487e-08
114                      18                       6                5.656854   -1.26059020515774e-05     0.00018200409046073    7.53873830830055e-05
115                      18                       6                2.828427   -2.58473667907241e-07    3.31615905225985e-06    2.61926636454844e-06
116                      18                       6                       0    -7.7430505672371e-08    8.87177038878436e-07    1.02000441027155e-06
117                      20                       4                5.656854   -2.59409838105468e-07    1.54480649765482e-06    4.98241064289554e-07
118                      20                       4                2.828427   -2.35294340222286e-07    1.35967027945381e-06      8.436170451468e-07
119                      20                       4                       0   -2.97585046676523e-09    1.67330982091932e-08    1.52883497430078e-08
120                      22                       6                5.656854   -2.13033404813353e-05    6.38051661920598e-05    2.55402944496907e-05
121                      22                       6                2.828427   -4.46561364394483e-07     1.3125506080691e-06    1.00520719633196e-06
122                      22                       6                       0   -1.36457785388374e-07    3.91374156029856e-07    4.38345245868051e-07
123                      24                       4                5.656854   -1.27502036645475e-07    2.99967402796183e-07    9.35544961047426e-08
124                      24                       4                2.828427   -1.29986582284706e-07    3.03625850122842e-07    1.83187764436775e-07
125                      24                       4                       0   -1.75995641232439e-09    4.09864899704266e-09    3.68483166283054e-09
126                      26                       6                5.656854    -3.2740112381023e-06      4.828264457999e-06    1.83249455793474e-06
127                      26                       6                2.828427   -9.07926874207714e-08    1.32221060509917e-07     9.7070123226812e-08
128                      26                       6                       0   -3.53176229051932e-08    5.09130307321346e-08    5.54267091164899e-08
129                      28                       4                5.656854   -1.10393338609115e-08    1.50103950420239e-08    4.55051768165678e-09
130                      28                       4                2.828427   -1.34124022821454e-08    1.84694844249921e-08     1.0858299046835e-08
131                      28                       4                       0   -1.48025568967949e-10    2.05071950854594e-10    1.85880728214662e-10
132                      30                       6                5.656854   -9.74134523830846e-08     8.8754681262759e-08    3.28608286411882e-08
133                      30                       6                2.828427   -3.66748967392092e-09    3.30535100274514e-09    2.38615626613359e-09
134                      30                       6                       0    -1.0847160935073e-09    1.00080235710317e-09    1.11145711021327e-09
135                       0                       8                5.656854   -3.10027336371169e-12    1.25231064715106e-08    5.94024390365934e-09
136                       0                       8                2.828427   -1.29554620799318e-10    1.42764980145357e-08    1.33227520498286e-08
137                       0                       8                       0    -1.4193957800864e-11    1.40813700255001e-10    2.10355866843758e-10
138                       2                      10                5.656854    3.14474371432114e-06    1.60627108401226e-06    1.08727416482621e-06
139                       2                      10                2.828427    8.96530153066969e-08    4.62693670905766e-08    5.96462565584717e-08
140                       2                      10                       0    3.65046686959801e-08    1.88694162830585e-08    3.56231227757754e-08
141                       4                       8                5.656854    9.95397660668723e-07    8.81694683855554e-07     4.3182818350739e-07
142                       4                       8                2.828427    8.39305797324991e-07    7.40188752483435e-07    6.94233923664849e-07
143                       4                       8                       0    9.89644186627196e-09    8.67607499557061e-09    1.19687069068643e-08
144                       6                      10                5.656854    0.000272492558521705    0.000232185275931846    0.000166769962765528
145                       6                      10                2.828427    3.96199563769382e-06    3.34524886386407e-06    4.52287908677518e-06
146                       6                      10                       0    8.86274449300998e-07     7.4102413247636e-07    1.44195821839193e-06
147                       8                       8                5.656854    2.36492829987523e-05    3.88000447381646e-05    2.00316929867702e-05
148                       8                       8                2.828427    1.23940746678463e-05    1.97717370153354e-05    1.94504161628776e-05
149                       8                       8                       0    9.42114626588114e-08    1.46488916860771e-07    2.09380490081151e-07
150                      10                      10                5.656854     0.00297759851673739     0.00579909328503328     0.00461314722074218
151                      10                      10                2.828427    2.50571638792578e-05    4.71475284411262e-05    6.92971953407128e-05
152                      10                      10                       0    3.59940318021042e-06    6.45214460546048e-06    1.33787850885862e-05
153                      12                       8                5.656854    6.26885245212737e-05    0.000297002318975568    0.000167038832594601
154                      12                       8                2.828427    2.38358446259981e-05    0.000106465177603795    0.000112012440857297
155                      12                       8                       0    1.44134637995358e-07    6.01499980968965e-07    9.04279359838837e-07
156                      14                      10                5.656854    0.000952897472973389      0.0152114233381653      0.0132981379155953
157                      14                      10                2.828427    9.27199316167885e-06    0.000112194644006534    0.000178853354857202
158                      14                      10                       0    1.52402781007396e-06    1.35276598286016e-05    2.97372021044004e-05
159                      16                       8                5.656854   -4.08301274310795e-07    0.000425816488324362    0.000244042072387395
160                      16                       8                2.828427    -1.0146685780396e-07    0.000149668569355685    0.000160327830573489
161                      16                       8                       0   -7.58573400098627e-10    8.28802954783843e-07    1.26763187425027e-06
162                      18                      10                5.656854    -0.00109024191489914      0.0151741345364826       0.013221847534547
163                      18                      10                2.828427   -1.02227325134486e-05    0.000112463784419411    0.000178672290608215
164                      18                      10                       0   -1.59364859140257e-06    1.35097804247795e-05    2.96713714880915e-05
165                      20                       8                5.656854   -6.19081251963306e-05    0.000286105400147618    0.000159751574270081
166                      20                       8                2.828427   -2.38062233277962e-05    0.000104401012299876    0.000109121776555872
167                      20                       8                       0   -1.44578610466272e-07    5.94966666622083e-07    8.91139973202113e-07
168                      22                      10                5.656854    -0.00284261267561676     0.00573971332544655     0.00452833589883928
169                      22                      10                2.828427   -2.42952220019724e-05    4.68021129272395e-05    6.85185471385017e-05
170                      22                      10                       0   -3.53695987919244e-06    6.38843872009499e-06    1.32303701462568e-05
171                      24                       8                5.656854   -2.33144576028333e-05    3.91939200424832e-05     2.0092987038926e-05
172                      24                       8                2.828427   -1.22041431587134e-05    1.98454649506578e-05    1.94695195401566e-05
173                      24                       8                       0   -9.27119610740435e-08    1.45877698556378e-07    2.08390154541017e-07
174                      26                      10                5.656854    -0.00027798622784479    0.000234713339995323    0.000169202618708207
175                      26                      10                2.828427   -4.00285677323615e-06    3.36109109427185e-06    4.58274179685934e-06
176                      26                      10                       0   -8.85403457088801e-07     7.3821829691772e-07    1.44622470040158e-06
177                      28                       8                5.656854   -1.01085290161342e-06    8.91090994122106e-07    4.35275953758254e-07
178                      28                       8                2.828427   -8.50594938449163e-07    7.47400730475303e-07    7.03847520361767e-07
179                      28                       8                       0    -9.9767489167535e-09    8.73151424482747e-09    1.20946106306577e-08
180                      30                      10                5.656854   -3.13388120682696e-06    1.57753235712091e-06    1.07165825769224e-06
181                      30                      10                2.828427    -8.9635219656447e-08    4.57927604389237e-08    5.95750450633203e-08
182                      30                      10                       0   -3.66071857795444e-08    1.87316220210938e-08    3.56597868969895e-08
183                       0                      12                5.656854    2.91074664371154e-09    6.01952419479282e-08      6.304455099049e-08
184                       0                      12                2.828427    2.16872777437929e-09    6.77082937893291e-08    1.34876475132467e-07
185                       0                      12                       0    4.08393066745305e-12    1.00953962091634e-09    2.87034398409751e-09
186                       2                      14                5.656854    1.87720920865503e-05    2.71429253479819e-06    6.49723557067597e-06
187                       2                      14                2.828427    4.55333729010676e-07    6.93723114906832e-08    3.04333465305362e-07
188                       2                      14                       0    1.58786728749789e-07    2.51753207531003e-08    1.54873836950129e-07
189                       4                      12                5.656854    2.29500959053177e-05    8.85432777944562e-06    1.02184530289523e-05
190                       4                      12                2.828427    1.28159326427795e-05     5.1114616450819e-06    1.08645250852912e-05
191                       4                      12                       0    1.02739948459292e-07    4.20692524546923e-08    1.26597290793937e-07
192                       6                      14                5.656854     0.00314290956564567    0.000662939196840264     0.00197193869254754
193                       6                      14                2.828427    2.95446898241304e-05     6.9345566634899e-06    3.47552774709434e-05
194                       6                      14                       0    4.54676868478715e-06    1.14276168524472e-06    7.61100984140285e-06
195                       8                      12                5.656854     0.00132039527460236     0.00103579553290079     0.00133162117861599
196                       8                      12                2.828427    0.000289937990286523    0.000224062785974311    0.000518019795123974
197                       8                      12                       0    1.15540438103074e-06    8.77599650298016e-07     2.8100330979847e-06
198                      10                      14                5.656854     -0.0245156023260018     -0.0148892027696928      -0.142047771648789
199                      10                      14                2.828427    0.000187119872920021    0.000111884920040242    0.000648067678903019
200                      10                      14                       0    1.75817678592821e-05    1.02245910287491e-05    7.49077464505185e-05
201                      12                      12                5.656854     0.00171841971157323     0.00553173562870248      0.0075845484517917