ITEM: TIMESTEP
0
ITEM: NUMBER OF ATOMS
422
ITEM: BOX BOUNDS pp pp pp
0.0000000000000000e+00 3.2000000000000000e+01
0.0000000000000000e+00 3.2000000000000000e+01
0.0000000000000000e+00 3.2000000000000000e+01
ITEM: ATOMS id xu yu zu fx fy fz
1        13.1459321938386        15.9835208156773                10.15685    0.000173858592720372   -3.88982846490082e-06    -0.00949763498174705
2        18.8274848400711        15.9892262416344                10.15685   -0.000171853212682177   -2.58702956335011e-06    -0.00950148782885598
3         17.402344993917         15.987795112765                10.15685    0.000142894304580643   -2.65498662793684e-06    -0.00953152980443434
4         14.571072038949        15.9849519429358                10.15685   -0.000138263177447029   -3.23158430697024e-06    -0.00953453794062755
5        16.7010751677692        14.7497248501637                10.15685    0.000124878503592885    -0.00014845225418933     -0.0094832514228844
6        15.2748269908674        14.7482926087119                10.15685   -0.000126796316742117    -0.00014729523955237    -0.00948122736099991
7        15.2723418650276        17.2230222053877                10.15685   -0.000128260104200029    0.000150026496156114    -0.00948007670922848
8        16.6985900414216        17.2244544465825                10.15685    0.000125734342761669     0.00015116373479597    -0.00948242706620257
9        14.5177569207574        13.5484462411751                10.15685   -8.35638237277683e-05    7.62475802863899e-05    -0.00934861603807021
10        17.4605534827313        13.5514014038861                10.15685    8.63864194871611e-05    7.64202135514619e-05    -0.00935181985726669
11        14.5128635507729         18.421345651893                10.15685     -8.212350016195e-05   -7.15888393912206e-05    -0.00934370724612938
12        17.4556601106552        18.4243008141789                10.15685    8.62781747582031e-05   -7.29067974969272e-05    -0.00934946906169757
13        13.1273112602358        13.5624445878976                10.15685    0.000117446631987872    8.58427102568837e-05    -0.00941408295201743
14        13.1224488081137        18.4045547622743                10.15685    0.000116520125648556    -8.0332556376489e-05    -0.00941294177896949
15         18.850968226168        13.5681922935721                10.15685   -0.000115979790788855    8.41269832767379e-05    -0.00940931578568008
16        18.8461057714963        18.4103024705805                10.15685   -0.000114946801293869   -8.03037488456837e-05    -0.00940681594993408
17         12.426795838139        17.1943199436399                10.15685    9.04342521835001e-05    0.000163752090943825    -0.00949616993307747
18        12.4292290587396        14.7712798150634                10.15685    8.98646781323335e-05   -0.000160440371259091    -0.00949954381194513
19        19.5466211966922        14.7784271122721                10.15685   -9.41421644461969e-05   -0.000160301875413841    -0.00949769237035106
20        19.5441879750283        17.2014672429596                10.15685   -9.51280517884658e-05    0.000162344665762315    -0.00949564093802108
21        20.9551350226241        14.8244350858224                10.15685    0.000139962275011921   -0.000143509892090882    -0.00946061782803391
22        20.9527913622507        17.1582882295758                10.15685    0.000140769087248527    0.000144344879589031    -0.00946132377837962
23        11.0206256731611        14.8144588294926                10.15685     -0.0001393799621976   -0.000141203017166125    -0.00945809472798848
24        11.0182820131454        17.1483119722736                10.15685   -0.000141270869237394    0.000143828277402621    -0.00945928564431065
25        21.5867264607395        15.9919970781177                10.15685    7.56425504797417e-05   -1.36587155604706e-06    -0.00579229435960063
26        10.3866905744716        15.9807499786644                10.15685   -7.14058994726324e-05   -3.75147948102973e-06    -0.00579462627993284
27         21.609196045824        18.1859221409264                10.15685    6.61301700645989e-05   -3.29912484008654e-05    -0.00584723850407544
28        21.6136022867001        13.7981215696947                10.15685     6.5386126635212e-05     3.5907145278576e-05    -0.00584717047432944
29        10.3598147507275        18.1746254872963                10.15685   -6.13716406553726e-05   -3.10383673742621e-05    -0.00584754049970827
30        10.3642209902605        13.7868249167297                10.15685   -6.21561593859532e-05    3.76981126059346e-05    -0.00584727541600375
31        12.5998668222426        12.6154548000933                10.15685     7.0052730943182e-05    7.11715930938259e-05     -0.0032158433230645
32        12.5931035005993        19.3504833212092                10.15685    6.97928568210715e-05   -7.36252944191218e-05     -0.0032188206494645
33        19.3803135329519        12.6222637346313                10.15685   -7.16230854293741e-05    7.18703384600085e-05     -0.0032186645299092
34        19.3735502071424         19.357292260389                10.15685     -7.234331650742e-05   -7.34605232063645e-05    -0.00322160250153797
35        14.9622865728669        12.5689605638796                10.15685   -8.56697207977097e-05    7.15731909958217e-05    -0.00326383706233901
36         14.955425108682        19.4017221461408                10.15685   -8.59254019016098e-05   -7.41770478028814e-05    -0.00326776715229521
37        17.0179919240215        12.5710249097393                10.15685    8.58506861887154e-05    7.15512911122207e-05    -0.00326153890732934
38         17.011130457531        19.4037864905846                10.15685    8.61079941938403e-05   -7.36651567429802e-05    -0.00326328932296345
39                       0                       0                5.656854                       0                       0                       0
40                       0                       0                2.828427                       0                       0                       0
41                       0                       0                       0                       0                       0                       0
42                       2                       2                5.656854                       0                       0                       0
43                       2                       2                2.828427                       0                       0                       0
44                       2                       2                       0                       0                       0                       0
45                       4                       0                5.656854                       0                       0                       0
46                       4                       0                2.828427                       0                       0                       0
47                       4                       0                       0                       0                       0                       0
48                       6                       2                5.656854    8.55774784638478e-09      1.754026643102e-08    6.80233370484408e-09
49                       6                       2                2.828427    1.35113435468105e-10    2.95117244630815e-10    1.90539019737503e-10
50                       6                       2                       0                       0                       0                       0
51                       8                       0                5.656854    2.05451435324001e-10    1.75363318090838e-11    2.56487283053856e-10
52                       8                       0                2.828427                       0                       0                       0
53                       8                       0                       0                       0                       0                       0
54                      10                       2                5.656854    3.68834647222303e-08    1.43822538605391e-07      5.702837776504e-08
55                      10                       2                2.828427    8.30352218312404e-10    3.33958250284074e-09    2.15356400432012e-09
56                      10                       2                       0    7.26538778157018e-11    2.96651332062771e-10    2.83835515180685e-10
57                      12                       0                5.656854    5.88432074968066e-10    1.03846564498656e-10    1.64317430135818e-09
58                      12                       0                2.828427    2.35523665826873e-10    3.77740926904444e-11     1.1098087385368e-09
59                      12                       0                       0                       0                       0                       0
60                      14                       2                5.656854    2.30133904389432e-08    3.50800706422039e-07    1.40839469160938e-07
61                      14                       2                2.828427     5.5612404062078e-10    7.74692306611484e-09    5.06314746483368e-09
62                      14                       2                       0    6.65061171921201e-11    1.08035791720873e-09    1.03657172667641e-09
63                      16                       0                5.656854   -3.79108549559572e-12    1.42652046998253e-10    2.60028675105177e-09
64                      16                       0                2.828427    8.06583180232538e-11    3.68361037684848e-10    1.91052348315979e-09
65                      16                       0                       0                       0                       0                       0
66                      18                       2                5.656854   -2.35702035292045e-08    3.48898755729269e-07    1.40045161037077e-07
67                      18                       2                2.828427   -5.68389828931101e-10    7.70928391316461e-09    5.03751464808146e-09
68                      18                       2                       0   -6.82739993080436e-11    1.07588232482194e-09    1.03201609448381e-09
69                      20                       0                5.656854   -5.92516581469232e-10    7.64627687998901e-11    1.63506195002918e-09
70                      20                       0                2.828427   -2.37900352633821e-10    2.79305701691404e-11    1.10481707983712e-09
71                      20                       0                       0                       0                       0                       0
72                      22                       2                5.656854   -3.65640935282168e-08    1.41540518986767e-07    5.60946282715484e-08
73                      22                       2                2.828427   -8.24524873043756e-10     3.2916311044519e-09    2.12153357458578e-09
74                      22                       2                       0   -7.22605674537201e-11    2.93001019306113e-10    2.80163200357837e-10
75                      24                       0                5.656854   -2.04545211050946e-10    1.00747035916587e-11    2.53750557478547e-10
76                      24                       0                2.828427                       0                       0                       0
77                      24                       0                       0                       0                       0                       0
78                      26                       2                5.656854   -7.87363150194844e-09    1.61126848796503e-08    6.27966114795346e-09
79                      26                       2                2.828427   -1.32518291497265e-10    2.88411223947041e-10    1.86064220273513e-10
80                      26                       2                       0                       0                       0                       0
81                      28                       0                5.656854                       0                       0                       0
82                      28                       0                2.828427                       0                       0                       0
83                      28                       0                       0                       0                       0                       0
84                      30                       2                5.656854                       0                       0                       0
85                      30                       2                2.828427                       0                       0                       0
86                      30                       2                       0                       0                       0                       0
87                       0                       4                5.656854    2.98539502403706e-12    1.67995378003195e-10    7.72007530584662e-11
88                       0                       4                2.828427                       0                       0                       0
89                       0                       4                       0                       0                       0                       0
90                       2                       6                5.656854    4.82014491134746e-08    4.37592436785456e-08    2.44803747337064e-08
91                       2                       6                2.828427    1.04475303821511e-09    9.70727707236058e-10    8.80879151935599e-10
92                       2                       6                       0                       0                       0                       0
93                       4                       4                5.656854    5.61885217234131e-09    7.64855198722475e-09    3.49212979480885e-09
94                       4                       4                2.828427    3.41167382443128e-09    4.85517739897833e-09    3.63157824709515e-09
95                       4                       4                       0                       0                       0                       0
96                       6                       6                5.656854    1.39041403931411e-06    2.04510140346572e-06    1.16607840365982e-06
97                       6                       6                2.828427    2.41283051358313e-08    3.50160177215522e-08    3.22537137985258e-08
98                       6                       6                       0    6.19058141373011e-09    9.19463607049656e-09    1.17244049652371e-08
99                       8                       4                5.656854    5.82367026082456e-08    1.36246349961766e-07    6.38018322053428e-08
100                       8                       4                2.828427    3.71349217775127e-08    8.64235580335021e-08     6.5648144120195e-08
101                       8                       4                       0    2.28384659985803e-10    5.56064057584076e-10    6.03112133879802e-10
102                      10                       6                5.656854    7.87791311470594e-06    2.33051291841541e-05    1.39410662713399e-05
103                      10                       6                2.828427    1.02744144008511e-07    2.97212728582951e-07    2.84503647696254e-07
104                      10                       6                       0    2.31279334853365e-08    6.54423413870436e-08    8.60057283741018e-08
105                      12                       4                5.656854     1.1049665597919e-07    6.53489273189063e-07    3.15516711512483e-07
106                      12                       4                2.828427    6.19899447302556e-08     3.5734954926433e-07    2.78536183373794e-07
107                      12                       4                       0    4.53645054053262e-10    2.90188139640974e-09    3.14627251632215e-09
108                      14                       6                5.656854    4.37068578732304e-06    6.20284345491401e-05     3.8315535694007e-05
109                      14                       6                2.828427    5.63990478593394e-08     7.0153369265502e-07    6.90781223820991e-07
110                      14                       6                       0    1.22245708374236e-08    1.41017306303628e-07    1.89846817582863e-07
111                      16                       4                5.656854   -1.01113788159069e-09    9.68955911314852e-07    4.72553699694165e-07
112                      16                       4                2.828427   -5.45428055818363e-10    5.19920918562666e-07    4.08739578594826e-07
113                      16                       4                       0   -4.37611647302751e-12    4.07337104018045e-09    4.46966539656978e-09
114                      18                       6                5.656854   -4.48989066105076e-06    6.16862352059949e-05    3.80882013849301e-05
115                      18                       6                2.828427   -5.77654309672874e-08    6.98285101001273e-07    6.87325806110389e-07
116                      18                       6                       0   -1.25091726190207e-08     1.4047309272155e-07     1.8904751014477e-07
117                      20                       4                5.656854   -1.10638333414651e-07    6.46141551375977e-07    3.11807280566138e-07
118                      20                       4                2.828427   -6.21393706914054e-08    3.53851684825203e-07    2.75674635664142e-07
119                      20                       4                       0   -4.56075546573584e-10    2.87786339920884e-09    3.11857861741572e-09
120                      22                       6                5.656854   -7.79551182310655e-06    2.28972956146385e-05    1.36844150575657e-05
121                      22                       6                2.828427   -1.01936167282825e-07    2.92828633554366e-07    2.80071237518187e-07
122                      22                       6                       0   -2.29981087449848e-08    6.46335141393194e-08    8.48750256076611e-08
123                      24                       4                5.656854   -5.72455855559839e-08    1.33281302673952e-07    6.23659890612456e-08
124                      24                       4                2.828427   -3.65922863080316e-08    8.47569076338008e-08    6.43346273122195e-08
125                      24                       4                       0   -2.25702200391722e-10    5.46915913977296e-10    5.92679378960743e-10
126                      26                       6                5.656854   -1.35604462746028e-06     1.9877788367012e-06    1.13237122297426e-06
127                      26                       6                2.828427   -2.36251886058785e-08    3.41750814017287e-08     3.1447263278847e-08
128                      26                       6                       0   -6.08288698169847e-09    9.00581186929052e-09    1.14714683421447e-08
129                      28                       4                5.656854   -5.46655154676472e-09     7.4227990109374e-09    3.38611123625976e-09
130                      28                       4                2.828427   -3.32769726402098e-09    4.72431309515874e-09    3.53030179593114e-09
131                      28                       4                       0                       0                       0                       0
132                      30                       6                5.656854   -4.66695008999268e-08    4.23038428427065e-08    2.36388216010343e-08
133                      30                       6                2.828427   -1.01466737651393e-09    9.41349503264122e-10    8.53218647820624e-10
134                      30                       6                       0                       0                       0                       0
135                       0                       8                5.656854     1.8617599290763e-10     6.1380098218428e-09    4.45094236143585e-09
136                       0                       8                2.828427    1.08944630869958e-10    3.95809291748486e-09    4.76796678904635e-09
137                       0                       8                       0                       0                       0                       0
138                       2                      10                5.656854    1.39110853702559e-06    7.10723491828952e-07      7.204595702532e-07
139                       2                      10                2.828427    2.49334258612421e-08    1.28892623730655e-08    2.08262611446063e-08
140                       2                      10                       0    5.94077944432675e-09    3.00216748559437e-09     6.9769179612434e-09
141                       4                       8                5.656854    4.20954125468417e-07    3.73539470579258e-07    2.73485439741863e-07
142                       4                       8                2.828427    2.20122078335232e-07     1.9464947945326e-07    2.29081479737519e-07
143                       4                       8                       0    1.75275308580954e-09     1.5312095616254e-09     2.5218158802323e-09
144                       6                      10                5.656854    8.41751255312477e-05    7.16648308761828e-05    7.66016499259992e-05
145                       6                      10                2.828427    7.62256868449662e-07    6.43116616927753e-07    1.08210887578195e-06
146                       6                      10                       0    1.33211424882469e-07    1.11741646984271e-07     2.5272941720871e-07
147                       8                       8                5.656854    7.48900626300496e-06    1.23979377023477e-05    9.50048033077658e-06
148                       8                       8                2.828427    2.45667882864884e-06    3.92560827422036e-06    4.79982267116813e-06
149                       8                       8                       0    1.45022962640188e-08    2.25400634991697e-08    3.74849687738161e-08
150                      10                      10                5.656854    0.000651353877012393     0.00128597266778601     0.00149433146958653
151                      10                      10                2.828427    3.61233653888062e-06    6.70466852883534e-06    1.20434145013072e-05
152                      10                      10                       0    4.53047288334375e-07    7.98599443546351e-07    1.89882636651959e-06
153                      12                       8                5.656854    1.67770823657051e-05    7.59618896146616e-05    6.27156883747622e-05
154                      12                       8                2.828427    4.16684368195992e-06    1.77939888373695e-05    2.30123729262096e-05
155                      12                       8                       0     2.0528398494362e-08    8.27899065467999e-08    1.43426386736116e-07
156                      14                      10                5.656854    0.000242944413375894     0.00332673404911333     0.00425136659037417
157                      14                      10                2.828427    1.50384061755408e-06    1.48002973128049e-05    2.84882855792482e-05
158                      14                      10                       0    2.04470576025814e-07    1.60771194396634e-06    4.01667173864597e-06
159                      16                       8                5.656854   -1.23610238528384e-07     0.00010937485652405    9.24311216001341e-05
160                      16                       8                2.828427   -2.97992254324691e-08    2.48710189774366e-05    3.28555386068254e-05
161                      16                       8                       0   -1.42514203556983e-10    1.13408328886836e-07    1.99971764587946e-07
162                      18                      10                5.656854   -0.000252337138726221     0.00331457357568195     0.00423169552585213
163                      18                      10                2.828427   -1.54463693619012e-06    1.47552634356155e-05    2.83788493890772e-05
164                      18                      10                       0   -2.08935585565191e-07    1.60346417519481e-06    4.00342036688752e-06
165                      20                       8                5.656854   -1.68028905857019e-05    7.51014270134363e-05    6.19383043556559e-05
166                      20                       8                2.828427   -4.17957858202888e-06    1.76347989858384e-05     2.2785214218567e-05
167                      20                       8                       0   -2.06109922838919e-08    8.21838786005937e-08    1.42259819982305e-07
168                      22                      10                5.656854   -0.000644985815885087     0.00126478479133807     0.00146661952260159
169                      22                      10                2.828427   -3.58926734981806e-06    6.61865359858988e-06    1.18686547136446e-05
170                      22                      10                       0    -4.5114278848021e-07    7.90289801807727e-07    1.87637833461549e-06
171                      24                       8                5.656854   -7.34490465708843e-06    1.21025085341269e-05     9.2606257108787e-06
172                      24                       8                2.828427   -2.41951377924502e-06    3.84909117449806e-06    4.70021559599506e-06
173                      24                       8                       0    -1.4329980242806e-08    2.21767278059341e-08    3.68377172052184e-08
174                      26                      10                5.656854   -8.19232059023046e-05    6.95686913858527e-05    7.42053116631187e-05
175                      26                      10                2.828427   -7.46136970780893e-07    6.27880361526202e-07    1.05459554668607e-06
176                      26                      10                       0   -1.30394622774508e-07     1.0890135903945e-07    2.46610621202381e-07
177                      28                       8                5.656854   -4.08227715662194e-07    3.61531832571747e-07    2.64308253378664e-07
178                      28                       8                2.828427   -2.14414156299852e-07    1.89221710468918e-07    2.22396015223223e-07
179                      28                       8                       0   -1.71462753411258e-09    1.49511229687215e-09    2.45889353488243e-09
180                      30                      10                5.656854   -1.34377486135247e-06     6.8635290898182e-07    6.94524947083198e-07
181                      30                      10                2.828427   -2.41917336590946e-08    1.24985141350596e-08    2.01632886273384e-08
182                      30                      10                       0   -5.79377217390902e-09    2.92591163052461e-09    6.78587992282471e-09
183                       0                      12                5.656854    1.92894655315232e-09    2.87992693972156e-08    4.50971405598759e-08
184                       0                      12                2.828427    1.17285386171269e-09    2.00963528431041e-08     4.9978932492499e-08
185                       0                      12                       0    3.68778862979968e-12    5.15889974766983e-11    2.92335669132586e-10
186                       2                      14                5.656854     7.5300865882893e-06    1.11133131341014e-06    3.90280484717031e-06
187                       2                      14                2.828427    1.13341028309061e-07     1.7737027280377e-08    9.52007616155143e-08
188                       2                      14                       0    2.76869472519625e-08    4.56598174040023e-09    3.20106699116924e-08
189                       4                      12                5.656854    7.79719863054084e-06     3.0242444545776e-06    5.17899821273898e-06
190                       4                      12                2.828427    2.69397923317668e-06    1.08527584945526e-06    2.85393454034409e-06
191                       4                      12                       0    1.63224378188129e-08    6.72542964577341e-09    2.35863269315895e-08
192                       6                      14                5.656854    0.000759441983098699    0.000167917055431728     0.00070660882122834
193                       6                      14                2.828427    4.55763005267953e-06    1.12321667257913e-06    6.63122885135198e-06
194                       6                      14                       0    5.91268576485799e-07    1.53947995307491e-07    1.14473577592398e-06
195                       8                      12                5.656854    0.000266507443004094    0.000208064305822346    0.000392533872159689
196                       8                      12                2.828427    3.95393011643968e-05    3.04404496345525e-05    8.56748140320241e-05
197                       8                      12                       0    1.39878532042045e-07    1.06154477875078e-07    3.87626201035663e-07
198                      10                      14                5.656854      0.0059575520267705     0.00364365804915636      0.0171223411403827
199                      10                      14                2.828427    2.09983739496344e-05    1.25860429788847e-05    8.27805797098044e-05
200                      10                      14                       0    1.90353157895616e-06    1.10530395078927e-06    8.87651967890296e-06
201                      12                      12                5.656854    0.000468628939685388     0.00122101571775674     0.00271187674591098