ITEM: TIMESTEP
0
ITEM: NUMBER OF ATOMS
422
ITEM: BOX BOUNDS pp pp pp
0.0000000000000000e+00 3.2000000000000000e+01
0.0000000000000000e+00 3.2000000000000000e+01
0.0000000000000000e+00 3.2000000000000000e+01
ITEM: ATOMS id xu yu zu fx fy fz
1         13.114003492211        15.9515921140497        8.62492129837246        4.98129785348662        4.96403643276015        1.08287320771233
2        18.8324126153051        15.9941540168684        8.66177777523399     -0.0557333521348403      -0.845440043382693      -0.266330858528801
3        17.4421013617989        16.0275514806469        8.69660636788192       -2.22541140270917       -1.85144022372857      -0.245599106620074
4        14.5740987998135        15.9879787038003        8.65987676086443       -1.96502914466917       -2.21762372504986      -0.662673217564736
5        16.7402891998506        14.7889388822451        8.69606403208145       -4.18976638862247       -3.71092269029778      -0.959165007389189
6        15.2453261601219        14.7187917779664        8.62734916925446        3.55101713989192        2.95241501946224       0.897856950103338
7        15.2831433004575        17.2338236408177        8.66765143542996       -1.05413263720849       -1.53896649537698      -0.186040268840422
8        16.6997428168913        17.2256072220522         8.6580027754697       0.448968369243467    -0.00138983779659585       0.213315880600866
9        14.4814548964221        13.5121442168399        8.62054797566475       0.481737721165575       0.199618769608534     -0.0867846695488872
10        17.4364599062056        13.5273078273603        8.63275642347424         1.0540026243223         1.6188403802093       0.407398312327454
11        14.5010476439108        18.4095297450309        8.64503409313787        1.23896804407086        2.61744482730923       0.334567415011476
12        17.4250938708437        18.3937345743674        8.62628376018853        3.66526121022095         3.1593411129701       0.568690620742836
13        13.0922212690827        13.5273545967446        8.62176000884697       0.990840369998502        1.68344759512982       0.247321303945134
14        13.0996052211853         18.381711175346        8.63400641307167        2.69282624282307        1.96802013531129       0.109626147410559
15        18.8189797754703        13.5362038428744        8.62486154930229       0.273799308382389       0.507218365172421       0.150627904756574
16        18.8829012070404        18.4470979061246        8.69364543554411       -4.43912309287329       -3.47134098230995      -0.799437885489122
17        12.4626205142164        17.2301446197174        8.69267467607742       -3.26380569821787       -4.39759138560782      -0.537758943991227
18        12.4429912184215        14.7850419747453         8.6706121596819       -2.66959436324303       -2.91113471528056      -0.392900387797525
19         19.502218470698        14.7340243862778        8.61244727400572        2.14079252651886        2.23414617833902       0.237713657991746
20        19.5418125755011        17.1990918434324        8.65447460047284        3.59282007300434        2.62435419771072        0.80154011849964
21        20.9224646731431        14.7917647363414        8.62417965051904        3.77571313890469        5.16157821340749       0.909864412013074
22        20.9949195763852        17.2004164437103         8.6989782141345       -4.65177821615024       -5.47638760456936      -0.803315957489938
23        11.0419753555854        14.8358085119169        8.67819968242433       -4.14532376877139       -4.76620470991103      -0.736481633616568
24        11.0635231146374        17.1935530737657        8.70209110149204       -3.23705394909079        -3.4101101061646      -0.548434737304732
25        21.6105232455761        16.0157938629543        8.68064678483659       -2.71043330367235       -2.36794146203975      -0.302868150719501
26        10.3907318612315        15.9847912654243        8.66089128675991        2.88065152190697        3.15706409597658       0.630154007407451
27         21.613428661069        18.1901547561713        8.66108261524494        2.13226704459901        2.97747738197829       0.180918097090851
28           21.6395512929        13.8240705758945        8.68279900619982       -1.06767735700912        -1.9626943262745      -0.320600664224433
29        10.3835016722959        18.1983124088648        8.68053692156847       0.312790826759363       0.820260629353557       0.163036797523081
30        10.3330404626916        13.7556443891608        8.62566947243108        3.22632439230021        4.06265810146894       0.395509532295101
31        12.5679851126554         12.583573090506        8.62496829041271      -0.269674185707332    -0.00209918294189129   -0.000312272933979749
32        12.5438807205364        19.3012605411464        8.60762721993711       0.234047635918744       0.504461895129912      0.0686463925621272
33        19.4149927945242        12.6569429962036        8.69152926157234      -0.411941900727402       -1.03257794988094      -0.201192125694211
34        19.3826916533897        19.3664337066363        8.66599144624733       0.591517644539242       0.991280134929192       0.117880953128378
35        14.9390583546879        12.5457323457005        8.63362178182096     -0.0540568094305981      -0.205028754247502     -0.0416723401232099
36        15.0006255698419        19.4469226073007        8.70205046115988       -1.75634874190541       -1.94661793060294      -0.271249716467327
37        16.9919051515054        12.5449381372232        8.63076322748389      -0.193343254531708       0.193709167269052     0.00514938247710098
38         16.990733025332        19.3833890583856        8.63645256780101      0.0945838786175991      -0.281860508032483      -0.159873149255235
39                       0                       0                5.656854                       0                       0                       0
40                       0                       0                2.828427                       0                       0                       0
41                       0                       0                       0                       0                       0                       0
42                       2                       2                5.656854                       0                       0                       0
43                       2                       2                2.828427                       0                       0                       0
44                       2                       2                       0                       0                       0                       0
45                       4                       0                5.656854                       0                       0                       0
46                       4                       0                2.828427                       0                       0                       0
47                       4                       0                       0                       0                       0                       0
48                       6                       2                5.656854                       0                       0                       0
49                       6                       2                2.828427                       0                       0                       0
50                       6                       2                       0                       0                       0                       0
51                       8                       0                5.656854                       0                       0                       0
52                       8                       0                2.828427                       0                       0                       0
53                       8                       0                       0                       0                       0                       0
54                      10                       2                5.656854                       0                       0                       0
55                      10                       2                2.828427                       0                       0                       0
56                      10                       2                       0                       0                       0                       0
57                      12                       0                5.656854                       0                       0                       0
58                      12                       0                2.828427                       0                       0                       0
59                      12                       0                       0                       0                       0                       0
60                      14                       2                5.656854                       0                       0                       0
61                      14                       2                2.828427                       0                       0                       0
62                      14                       2                       0                       0                       0                       0
63                      16                       0                5.656854                       0                       0                       0
64                      16                       0                2.828427                       0                       0                       0
65                      16                       0                       0                       0                       0                       0
66                      18                       2                5.656854                       0                       0                       0
67                      18                       2                2.828427                       0                       0                       0
68                      18                       2                       0                       0                       0                       0
69                      20                       0                5.656854                       0                       0                       0
70                      20                       0                2.828427                       0                       0                       0
71                      20                       0                       0                       0                       0                       0
72                      22                       2                5.656854                       0                       0                       0
73                      22                       2                2.828427                       0                       0                       0
74                      22                       2                       0                       0                       0                       0
75                      24                       0                5.656854                       0                       0                       0
76                      24                       0                2.828427                       0                       0                       0
77                      24                       0                       0                       0                       0                       0
78                      26                       2                5.656854                       0                       0                       0
79                      26                       2                2.828427                       0                       0                       0
80                      26                       2                       0                       0                       0                       0
81                      28                       0                5.656854                       0                       0                       0
82                      28                       0                2.828427                       0                       0                       0
83                      28                       0                       0                       0                       0                       0
84                      30                       2                5.656854                       0                       0                       0
85                      30                       2                2.828427                       0                       0                       0
86                      30                       2                       0                       0                       0                       0
87                       0                       4                5.656854                       0                       0                       0
88                       0                       4                2.828427                       0                       0                       0
89                       0                       4                       0                       0                       0                       0
90                       2                       6                5.656854                       0                       0                       0
91                       2                       6                2.828427                       0                       0                       0
92                       2                       6                       0                       0                       0                       0
93                       4                       4                5.656854                       0                       0                       0
94                       4                       4                2.828427                       0                       0                       0
95                       4                       4                       0                       0                       0                       0
96                       6                       6                5.656854                       0                       0                       0
97                       6                       6                2.828427                       0                       0                       0
98                       6                       6                       0                       0                       0                       0
99                       8                       4                5.656854                       0                       0                       0
100                       8                       4                2.828427                       0                       0                       0
101                       8                       4                       0                       0                       0                       0
102                      10                       6                5.656854                       0                       0                       0
103                      10                       6                2.828427                       0                       0                       0
104                      10                       6                       0                       0                       0                       0
105                      12                       4                5.656854                       0                       0                       0
106                      12                       4                2.828427                       0                       0                       0
107                      12                       4                       0                       0                       0                       0
108                      14                       6                5.656854                       0                       0                       0
109                      14                       6                2.828427                       0                       0                       0
110                      14                       6                       0                       0                       0                       0
111                      16                       4                5.656854                       0                       0                       0
112                      16                       4                2.828427                       0                       0                       0
113                      16                       4                       0                       0                       0                       0
114                      18                       6                5.656854                       0                       0                       0
115                      18                       6                2.828427                       0                       0                       0
116                      18                       6                       0                       0                       0                       0
117                      20                       4                5.656854                       0                       0                       0
118                      20                       4                2.828427                       0                       0                       0
119                      20                       4                       0                       0                       0                       0
120                      22                       6                5.656854                       0                       0                       0
121                      22                       6                2.828427                       0                       0                       0
122                      22                       6                       0                       0                       0                       0
123                      24                       4                5.656854                       0                       0                       0
124                      24                       4                2.828427                       0                       0                       0
125                      24                       4                       0                       0                       0                       0
126                      26                       6                5.656854                       0                       0                       0
127                      26                       6                2.828427                       0                       0                       0
128                      26                       6                       0                       0                       0                       0
129                      28                       4                5.656854                       0                       0                       0
130                      28                       4                2.828427                       0                       0                       0
131                      28                       4                       0                       0                       0                       0
132                      30                       6                5.656854                       0                       0                       0
133                      30                       6                2.828427                       0                       0                       0
134                      30                       6                       0                       0                       0                       0
135                       0                       8                5.656854                       0                       0                       0
136                       0                       8                2.828427                       0                       0                       0
137                       0                       8                       0                       0                       0                       0
138                       2                      10                5.656854                       0                       0                       0
139                       2                      10                2.828427                       0                       0                       0
140                       2                      10                       0                       0                       0                       0
141                       4                       8                5.656854                       0                       0                       0
142                       4                       8                2.828427                       0                       0                       0
143                       4                       8                       0                       0                       0                       0
144                       6                      10                5.656854                       0                       0                       0
145                       6                      10                2.828427                       0                       0                       0
146                       6                      10                       0                       0                       0                       0
147                       8                       8                5.656854                       0                       0                       0
148                       8                       8                2.828427                       0                       0                       0
149                       8                       8                       0                       0                       0                       0
150                      10                      10                5.656854                       0                       0                       0
151                      10                      10                2.828427                       0                       0                       0
152                      10                      10                       0                       0                       0                       0
153                      12                       8                5.656854                       0                       0                       0
154                      12                       8                2.828427                       0                       0                       0
155                      12                       8                       0                       0                       0                       0
156                      14                      10                5.656854                       0                       0                       0
157                      14                      10                2.828427                       0                       0                       0
158                      14                      10                       0                       0                       0                       0
159                      16                       8                5.656854                       0                       0                       0
160                      16                       8                2.828427                       0                       0                       0
161                      16                       8                       0                       0                       0                       0
162                      18                      10                5.656854                       0                       0                       0
163                      18                      10                2.828427                       0                       0                       0
164                      18                      10                       0                       0                       0                       0
165                      20                       8                5.656854                       0                       0                       0
166                      20                       8                2.828427                       0                       0                       0
167                      20                       8                       0                       0                       0                       0
168                      22                      10                5.656854                       0                       0                       0
169                      22                      10                2.828427                       0                       0                       0
170                      22                      10                       0                       0                       0                       0
171                      24                       8                5.656854                       0                       0                       0
172                      24                       8                2.828427                       0                       0                       0
173                      24                       8                       0                       0                       0                       0
174                      26                      10                5.656854                       0                       0                       0
175                      26                      10                2.828427                       0                       0                       0
176                      26                      10                       0                       0                       0                       0
177                      28                       8                5.656854                       0                       0                       0
178                      28                       8                2.828427                       0                       0                       0
179                      28                       8                       0                       0                       0                       0
180                      30                      10                5.656854                       0                       0                       0
181                      30                      10                2.828427                       0                       0                       0
182                      30                      10                       0                       0                       0                       0
183                       0                      12                5.656854                       0                       0                       0
184                       0                      12                2.828427                       0                       0                       0
185                       0                      12                       0                       0                       0                       0
186                       2                      14                5.656854                       0                       0                       0
187                       2                      14                2.828427                       0                       0                       0
188                       2                      14                       0                       0                       0                       0
189                       4                      12                5.656854                       0                       0                       0
190                       4                      12                2.828427                       0                       0                       0
191                       4                      12                       0                       0                       0                       0
192                       6                      14                5.656854                       0                       0                       0
193                       6                      14                2.828427                       0                       0                       0
194                       6                      14                       0                       0                       0                       0
195                       8                      12                5.656854                       0                       0                       0
196                       8                      12                2.828427                       0                       0                       0
197                       8                      12                       0                       0                       0                       0
198                      10                      14                5.656854                       0                       0                       0
199                      10                      14                2.828427                       0                       0                       0
200                      10                      14                       0                       0                       0                       0
201                      12                      12                5.656854                       0                       0                       0