ITEM: TIMESTEP
0
ITEM: NUMBER OF ATOMS
422
ITEM: BOX BOUNDS ff ff ff
0.0000000000000000e+00 2.3200000000000000e+02
0.0000000000000000e+00 2.3200000000000000e+02
0.0000000000000000e+00 2.3200000000000000e+02
ITEM: ATOMS id xu yu zu fx fy fz
1        113.147917960441         115.98550658228        108.658839766603         1.8222641390015       0.743436463699811      0.0949695137467704
2        118.839083167761        116.000824569324         108.66845232769       -2.21408265187793       -1.31834570797795       0.180533055015722
3        117.392328444299        115.977778563147        108.646837450382        1.96961372056524        1.84000728699887     0.00786369272927181
4        114.539047811343         115.95292771533        108.624829772394        7.21730715591305        4.93062788776086       -0.38674227577679
5        116.713499706766         114.76214938916        108.669278538996       -4.46728291612013       -3.08176336812146      0.0332573621969281
6        115.245041178139        114.718506795983        108.627068187271        6.65921635163647        1.08729025381095      -0.175269100615462
7        115.287773637622        117.238453977982        108.672285772594       0.405879428496756       -1.09696342594698      0.0866762997260914
8        116.739172786415        117.265037191576        108.697436744994        -8.1085478993017       -2.83157714882885       0.348267533989911
9        114.527584134938        113.558273455356        108.666681214181        5.01034749462552       -10.8097760969125     0.00515882581617212
10         117.44073747872        113.531585399874        108.637037995988       -4.77101339241363       -5.36710232809352    -0.00623949911383969
11        114.477218974375        118.385701075495        108.621209423602        10.3757595806734         11.056036480288      -0.343932500792306
12        117.457786003801        118.426426707324        108.658979893146       -5.10261618444988        8.48115543019594     -0.0201992423318727
13        113.131219950834        113.566353278495        108.660762690598       -5.23775282244571       -6.87684788239518       0.176223846830601
14        113.096268145498        118.378374099659        108.630673337385      -0.352171047850977        13.2211224236748      -0.403401259112138
15        118.804010922238        113.521234989642         108.60989669607        10.4838449365136       -1.58450736667861      -0.142353374553897
16        118.826912339358        118.391109038442        108.637660567862        7.59897220648363        9.95760655672448      -0.452746115535304
17        112.456915895627        117.224440001128        108.686974057488       -8.18152381426798        -3.6645000236078       0.515671265664906
18        112.450479779127        114.792530535451        108.678104720387       -6.72642916716789       -3.63568916764325       0.195389539014847
19        119.576922732675        114.808728648254        108.687155535982       -5.69957549302215        -7.9635591846764       0.208909900155991
20        119.583274422551        117.240553690483        108.695940447523       -3.55060260867319       -3.17907026595376       0.605514326797618
21        120.959219402716        114.828519465914        108.660938380092        6.68556909988896       -13.4402790530631       0.138096029103525
22         120.96578084555        117.171277712875          108.6698434833        8.38367054425586        4.93100581342216      0.0699674512048302
23         111.03199902963        114.825832185962        108.668227356469       -10.9461862497883       -12.6612235770307     -0.0933924394284833
24        111.030410106967        117.160440066095        108.668982093821       -9.25611899620545        9.37814711348645        0.15143593059779
25          121.5372175807        115.942488198079        108.607345119961        8.55537613625148        7.59545032954806      -0.503402976379378
26        110.405984055713        116.000043459906        108.676147481242       -4.65938320479638       -1.46311136945221      0.0374462294558411
27        121.587695919636        118.164422014738        108.635353873812        9.46144034752164        9.08148903072428      -0.273064188016709
28        121.608162314132        113.792681597126        108.651414027432        5.19693632234818       -6.87828060848404      0.0207627900113743
29        110.380747765075        118.195558501644        108.677787014348       -4.79435206702414        5.35135536978626     -0.0104263978913991
30        110.334201304717        113.756805231186        108.626834314457       -1.12308828911409       -0.60988945703608    -0.00116293064422507
31        112.638974568127        112.654562545978        108.695961745884       -4.64579943470586       -6.85423942091477       0.150415270335659
32        112.608013035323        119.365392855933        108.671763534724       -3.18245392053757        5.01279168019876      0.0540705335391778
33        119.345546201378        112.587496403058        108.622086668426        3.28550500837306       -3.89583392428179     -0.0882918116880661
34        119.348270887018        119.332012940265        108.631574679876        3.77282229846561        6.76533039715202      -0.203577811359994
35          114.9216250643        112.528299055313        108.616192491433        3.71757279769623       -4.47784936484013      -0.111003413843909
36        114.974710303128        119.421007340586        108.676139194446        1.01950783677099        2.21161234266387      -0.027041273312019
37        116.998674216769        112.551707202487        108.637536292748       -4.81433221281915       -5.35843457942879      0.0607782596219025
38        117.036000712013        119.428656745067        108.681724254482       -3.78829303289898        5.40437846123224       0.100838954840863
39                     100                     100              105.656854                       0                       0                       0
40                     100                     100              102.828427                       0                       0                       0
41                     100                     100                     100                       0                       0                       0
42                     102                     102              105.656854                       0                       0                       0
43                     102                     102              102.828427                       0                       0                       0
44                     102                     102                     100                       0                       0                       0
45                     104                     100              105.656854                       0                       0                       0
46                     104                     100              102.828427                       0                       0                       0
47                     104                     100                     100                       0                       0                       0
48                     106                     102              105.656854                       0                       0                       0
49                     106                     102              102.828427                       0                       0                       0
50                     106                     102                     100                       0                       0                       0
51                     108                     100              105.656854                       0                       0                       0
52                     108                     100              102.828427                       0                       0                       0
53                     108                     100                     100                       0                       0                       0
54                     110                     102              105.656854                       0                       0                       0
55                     110                     102              102.828427                       0                       0                       0
56                     110                     102                     100                       0                       0                       0
57                     112                     100              105.656854                       0                       0                       0
58                     112                     100              102.828427                       0                       0                       0
59                     112                     100                     100                       0                       0                       0
60                     114                     102              105.656854                       0                       0                       0
61                     114                     102              102.828427                       0                       0                       0
62                     114                     102                     100                       0                       0                       0
63                     116                     100              105.656854                       0                       0                       0
64                     116                     100              102.828427                       0                       0                       0
65                     116                     100                     100                       0                       0                       0
66                     118                     102              105.656854                       0                       0                       0
67                     118                     102              102.828427                       0                       0                       0
68                     118                     102                     100                       0                       0                       0
69                     120                     100              105.656854                       0                       0                       0
70                     120                     100              102.828427                       0                       0                       0
71                     120                     100                     100                       0                       0                       0
72                     122                     102              105.656854                       0                       0                       0
73                     122                     102              102.828427                       0                       0                       0
74                     122                     102                     100                       0                       0                       0
75                     124                     100              105.656854                       0                       0                       0
76                     124                     100              102.828427                       0                       0                       0
77                     124                     100                     100                       0                       0                       0
78                     126                     102              105.656854                       0                       0                       0
79                     126                     102              102.828427                       0                       0                       0
80                     126                     102                     100                       0                       0                       0
81                     128                     100              105.656854                       0                       0                       0
82                     128                     100              102.828427                       0                       0                       0
83                     128                     100                     100                       0                       0                       0
84                     130                     102              105.656854                       0                       0                       0
85                     130                     102              102.828427                       0                       0                       0
86                     130                     102                     100                       0                       0                       0
87                     100                     104              105.656854                       0                       0                       0
88                     100                     104              102.828427                       0                       0                       0
89                     100                     104                     100                       0                       0                       0
90                     102                     106              105.656854                       0                       0                       0
91                     102                     106              102.828427                       0                       0                       0
92                     102                     106                     100                       0                       0                       0
93                     104                     104              105.656854                       0                       0                       0
94                     104                     104              102.828427                       0                       0                       0
95                     104                     104                     100                       0                       0                       0
96                     106                     106              105.656854                       0                       0                       0
97                     106                     106              102.828427                       0                       0                       0
98                     106                     106                     100                       0                       0                       0
99                     108                     104              105.656854                       0                       0                       0
100                     108                     104              102.828427                       0                       0                       0
101                     108                     104                     100                       0                       0                       0
102                     110                     106              105.656854                       0                       0                       0
103                     110                     106              102.828427                       0                       0                       0
104                     110                     106                     100                       0                       0                       0
105                     112                     104              105.656854                       0                       0                       0
106                     112                     104              102.828427                       0                       0                       0
107                     112                     104                     100                       0                       0                       0
108                     114                     106              105.656854                       0                       0                       0
109                     114                     106              102.828427                       0                       0                       0
110                     114                     106                     100                       0                       0                       0
111                     116                     104              105.656854                       0                       0                       0
112                     116                     104              102.828427                       0                       0                       0
113                     116                     104                     100                       0                       0                       0
114                     118                     106              105.656854                       0                       0                       0
115                     118                     106              102.828427                       0                       0                       0
116                     118                     106                     100                       0                       0                       0
117                     120                     104              105.656854                       0                       0                       0
118                     120                     104              102.828427                       0                       0                       0
119                     120                     104                     100                       0                       0                       0
120                     122                     106              105.656854                       0                       0                       0
121                     122                     106              102.828427                       0                       0                       0
122                     122                     106                     100                       0                       0                       0
123                     124                     104              105.656854                       0                       0                       0
124                     124                     104              102.828427                       0                       0                       0
125                     124                     104                     100                       0                       0                       0
126                     126                     106              105.656854                       0                       0                       0
127                     126                     106              102.828427                       0                       0                       0
128                     126                     106                     100                       0                       0                       0
129                     128                     104              105.656854                       0                       0                       0
130                     128                     104              102.828427                       0                       0                       0
131                     128                     104                     100                       0                       0                       0
132                     130                     106              105.656854                       0                       0                       0
133                     130                     106              102.828427                       0                       0                       0
134                     130                     106                     100                       0                       0                       0
135                     100                     108              105.656854                       0                       0                       0
136                     100                     108              102.828427                       0                       0                       0
137                     100                     108                     100                       0                       0                       0
138                     102                     110              105.656854                       0                       0                       0
139                     102                     110              102.828427                       0                       0                       0
140                     102                     110                     100                       0                       0                       0
141                     104                     108              105.656854                       0                       0                       0
142                     104                     108              102.828427                       0                       0                       0
143                     104                     108                     100                       0                       0                       0
144                     106                     110              105.656854                       0                       0                       0
145                     106                     110              102.828427                       0                       0                       0
146                     106                     110                     100                       0                       0                       0
147                     108                     108              105.656854                       0                       0                       0
148                     108                     108              102.828427                       0                       0                       0
149                     108                     108                     100                       0                       0                       0
150                     110                     110              105.656854                       0                       0                       0
151                     110                     110              102.828427                       0                       0                       0
152                     110                     110                     100                       0                       0                       0
153                     112                     108              105.656854                       0                       0                       0
154                     112                     108              102.828427                       0                       0                       0
155                     112                     108                     100                       0                       0                       0
156                     114                     110              105.656854                       0                       0                       0
157                     114                     110              102.828427                       0                       0                       0
158                     114                     110                     100                       0                       0                       0
159                     116                     108              105.656854                       0                       0                       0
160                     116                     108              102.828427                       0                       0                       0
161                     116                     108                     100                       0                       0                       0
162                     118                     110              105.656854                       0                       0                       0
163                     118                     110              102.828427                       0                       0                       0
164                     118                     110                     100                       0                       0                       0
165                     120                     108              105.656854                       0                       0                       0
166                     120                     108              102.828427                       0                       0                       0
167                     120                     108                     100                       0                       0                       0
168                     122                     110              105.656854                       0                       0                       0
169                     122                     110              102.828427                       0                       0                       0
170                     122                     110                     100                       0                       0                       0
171                     124                     108              105.656854                       0                       0                       0
172                     124                     108              102.828427                       0                       0                       0
173                     124                     108                     100                       0                       0                       0
174                     126                     110              105.656854                       0                       0                       0
175                     126                     110              102.828427                       0                       0                       0
176                     126                     110                     100                       0                       0                       0
177                     128                     108              105.656854                       0                       0                       0
178                     128                     108              102.828427                       0                       0                       0
179                     128                     108                     100                       0                       0                       0
180                     130                     110              105.656854                       0                       0                       0
181                     130                     110              102.828427                       0                       0                       0
182                     130                     110                     100                       0                       0                       0
183                     100                     112              105.656854                       0                       0                       0
184                     100                     112              102.828427                       0                       0                       0
185                     100                     112                     100                       0                       0                       0
186                     102                     114              105.656854                       0                       0                       0
187                     102                     114              102.828427                       0                       0                       0
188                     102                     114                     100                       0                       0                       0
189                     104                     112              105.656854                       0                       0                       0
190                     104                     112              102.828427                       0                       0                       0
191                     104                     112                     100                       0                       0                       0
192                     106                     114              105.656854                       0                       0                       0
193                     106                     114              102.828427                       0                       0                       0
194                     106                     114                     100                       0                       0                       0
195                     108                     112              105.656854                       0                       0                       0
196                     108                     112              102.828427                       0                       0                       0
197                     108                     112                     100                       0                       0                       0
198                     110                     114              105.656854                       0                       0                       0
199                     110                     114              102.828427                       0                       0                       0
200                     110                     114                     100                       0                       0                       0
201                     112                     112              105.656854                       0                       0                       0