ITEM: TIMESTEP
0
ITEM: NUMBER OF ATOMS
422
ITEM: BOX BOUNDS pp pp pp
0.0000000000000000e+00 3.2000000000000000e+01
0.0000000000000000e+00 3.2000000000000000e+01
0.0000000000000000e+00 3.2000000000000000e+01
ITEM: ATOMS id xu yu zu fx fy fz
1        13.1459321938386        15.9835208156773                10.05685    0.000186808466365283   -3.58923523543691e-06     -0.0104824187270404
2        18.8274848400711        15.9892262416344                10.05685   -0.000184582548802525   -2.30911727909869e-06     -0.0104852859007763
3         17.402344993917         15.987795112765                10.05685    0.000152869124415779   -2.28042901509345e-06     -0.0105069488160729
4         14.571072038949        15.9849519429358                10.05685   -0.000147890092882249    -2.7683503316544e-06     -0.0105090502774209
5        16.7010751677692        14.7497248501637                10.05685    0.000109142397676928   -0.000148140282766033     -0.0104048236780794
6        15.2748269908674        14.7482926087119                10.05685   -0.000110603936131409   -0.000146176620245907     -0.0103988330213621
7        15.2723418650276        17.2230222053877                10.05685    -0.00011294899395404    0.000148968808926114     -0.0104000331009948
8        16.6985900414216        17.2244544465825                10.05685    0.000110893852971163    0.000151034645234296     -0.0104067573907142
9        14.5177569207574        13.5484462411751                10.05685   -5.88018913054645e-05    5.50588170067545e-05     -0.0100764351732938
10        17.4605534827313        13.5514014038861                10.05685    6.08362993093193e-05    5.58225719055377e-05     -0.0100831590086664
11        14.5128635507729         18.421345651893                10.05685   -5.68424528811001e-05   -5.14124947860116e-05     -0.0100660031707095
12        17.4556601106552        18.4243008141789                10.05685    6.00981823690059e-05    -5.3268352707214e-05     -0.0100780600071016
13        13.1273112602358        13.5624445878976                10.05685    8.66737922610526e-05    7.38469436552648e-05     -0.0102155907155942
14        13.1224488081137        18.4045547622743                10.05685    8.49298388391056e-05   -6.91148969261794e-05     -0.0102119169488545
15         18.850968226168        13.5681922935721                10.05685   -8.51099187913161e-05    7.16405839627876e-05     -0.0102051070988528
16        18.8461057714963        18.4103024705805                10.05685   -8.35298259144906e-05   -6.81385378491258e-05     -0.0101990132453249
17         12.426795838139        17.1943199436399                10.05685    8.18321617467644e-05    0.000171346590375487     -0.0104574114185736
18        12.4292290587396        14.7712798150634                10.05685    8.04528828662185e-05   -0.000167690373991255     -0.0104585017257783
19        19.5466211966922        14.7784271122721                10.05685   -8.43679325575295e-05   -0.000167207163784074      -0.010454530774636
20        19.5441879750283        17.2014672429596                10.05685   -8.57978395386669e-05    0.000169130647354289     -0.0104534632166104
21        20.9551350226241        14.8244350858224                10.05685    0.000123122285489342   -0.000134039164622061     -0.0103482333800788
22        20.9527913622507        17.1582882295758                10.05685    0.000124682926039158    0.000135528759121537     -0.0103516674493044
23        11.0206256731611        14.8144588294926                10.05685   -0.000121943401704866   -0.000131097168249953     -0.0103401492122407
24        11.0182820131454        17.1483119722736                10.05685   -0.000125254519094727    0.000133620319453721     -0.0103461274951223
25        21.5867264607395        15.9919970781177                10.05685    8.44911460260398e-05   -1.60174279637541e-06    -0.00643053748993737
26        10.3866905744716        15.9807499786644                10.05685   -7.97314937390224e-05   -3.84374797718895e-06    -0.00643281004869868
27         21.609196045824        18.1859221409264                10.05685    6.43347468275279e-05   -3.25439503950113e-05    -0.00639106675043311
28        21.6136022867001        13.7981215696947                10.05685     6.3757447366665e-05    3.52427105090566e-05     -0.0063911828670097
29        10.3598147507275        18.1746254872963                10.05685    -5.9657599293477e-05   -3.04816719305783e-05    -0.00638949010743642
30        10.3642209902605        13.7868249167297                10.05685   -6.04925722413117e-05    3.70470143910194e-05    -0.00639046769733264
31        12.5998668222426        12.6154548000933                10.05685    8.10489377556025e-05    8.23139442810197e-05    -0.00360107559027016
32        12.5931035005993        19.3504833212092                10.05685    8.07280806849478e-05   -8.51400388091833e-05    -0.00360434302971789
33        19.3803135329519        12.6222637346313                10.05685   -8.28868067971171e-05     8.3088585665973e-05    -0.00360416691137665
34        19.3735502071424         19.357292260389                10.05685   -8.36632207013075e-05   -8.48878773536171e-05    -0.00360738362232305
35        14.9622865728669        12.5689605638796                10.05685   -9.89947881278584e-05    8.21564102686309e-05    -0.00365367202038005
36         14.955425108682        19.4017221461408                10.05685   -9.92089742070456e-05   -8.51398184667545e-05    -0.00365786834820208
37        17.0179919240215        12.5710249097393                10.05685    9.91749223988456e-05    8.21730005518005e-05    -0.00365115419077572
38         17.011130457531        19.4037864905846                10.05685    9.94608585034923e-05   -8.46016437043577e-05    -0.00365298999755664
39                       0                       0                5.656854                       0                       0                       0
40                       0                       0                2.828427                       0                       0                       0
41                       0                       0                       0                       0                       0                       0
42                       2                       2                5.656854                       0                       0                       0
43                       2                       2                2.828427                       0                       0                       0
44                       2                       2                       0                       0                       0                       0
45                       4                       0                5.656854                       0                       0                       0
46                       4                       0                2.828427                       0                       0                       0
47                       4                       0                       0                       0                       0                       0
48                       6                       2                5.656854    9.00452482664862e-09    1.84584477273955e-08     6.9998636571167e-09
49                       6                       2                2.828427    1.46188011378999e-10    3.19293059513295e-10    2.03336523514604e-10
50                       6                       2                       0                       0                       0                       0
51                       8                       0                5.656854    2.15728989653813e-10    1.84489320155475e-11    2.63257315886305e-10
52                       8                       0                2.828427                       0                       0                       0
53                       8                       0                       0                       0                       0                       0
54                      10                       2                5.656854    3.92313428854304e-08    1.53154766312519e-07    5.93076757518095e-08
55                      10                       2                2.828427    9.01626134850626e-10    3.62636279746292e-09    2.30698853043985e-09
56                      10                       2                       0     8.0810691649384e-11    3.29956225922503e-10    3.12593321073682e-10
57                      12                       0                5.656854     6.1856995981861e-10    1.09445429860699e-10     1.6891238330668e-09
58                      12                       0                2.828427    2.54428274778797e-10    4.09824912816776e-11    1.18311010073993e-09
59                      12                       0                       0                       0                       0                       0
60                      14                       2                5.656854     2.4335023158073e-08    3.71523375853918e-07    1.45873287497609e-07
61                      14                       2                2.828427    6.03920213215642e-10     8.4295785630441e-09    5.43522834551052e-09
62                      14                       2                       0    7.39487157476305e-11    1.20288683896411e-09    1.14277125342995e-09
63                      16                       0                5.656854   -3.97938651793889e-12    1.50375727966343e-10    2.67356269343484e-09
64                      16                       0                2.828427   -2.08979187173723e-12    6.69147505226677e-11     2.2258720405237e-09
65                      16                       0                       0                       0                       0                       0
66                      18                       2                5.656854   -2.49245441458579e-08      3.695025179939e-07     1.4504795922668e-07
67                      18                       2                2.828427   -6.17261749133432e-10    8.38844710612656e-09    5.40759621113699e-09
68                      18                       2                       0   -7.59161901326309e-11    1.19787799099722e-09    1.13772433037205e-09
69                      20                       0                5.656854    -6.2285302623923e-10    8.05826551905014e-11    1.68076482105927e-09
70                      20                       0                2.828427   -2.56992049679952e-10    3.02970957729483e-11    1.17777226496216e-09
71                      20                       0                       0                       0                       0                       0
72                      22                       2                5.656854   -3.86422683415685e-08    1.49624901553576e-07    5.79901698652204e-08
73                      22                       2                2.828427   -8.95246927374745e-10     3.5740838901053e-09    2.27254192461123e-09
74                      22                       2                       0   -8.03682372814361e-11    3.25875872181295e-10    3.08529786778092e-10
75                      24                       0                5.656854   -2.14770546474392e-10    1.06012110851597e-11    2.60441079934217e-10
76                      24                       0                2.828427                       0                       0                       0
77                      24                       0                       0                       0                       0                       0
78                      26                       2                5.656854   -8.81237029044607e-09    1.80010753486685e-08    6.82180227442782e-09
79                      26                       2                2.828427   -1.43367984520916e-10    3.12010870666145e-10    1.98544163238883e-10
80                      26                       2                       0                       0                       0                       0
81                      28                       0                5.656854                       0                       0                       0
82                      28                       0                2.828427                       0                       0                       0
83                      28                       0                       0                       0                       0                       0
84                      30                       2                5.656854                       0                       0                       0
85                      30                       2                2.828427                       0                       0                       0
86                      30                       2                       0                       0                       0                       0
87                       0                       4                5.656854    3.13490567263295e-12    1.76019391827226e-10     7.9090602280895e-11
88                       0                       4                2.828427                       0                       0                       0
89                       0                       4                       0                       0                       0                       0
90                       2                       6                5.656854    5.16273303398819e-08    4.71067997117606e-08     2.5637134524621e-08
91                       2                       6                2.828427    1.13406763077394e-09    1.05366076265027e-09    9.43258987625341e-10
92                       2                       6                       0                       0                       0                       0
93                       4                       4                5.656854    5.92768182597692e-09    8.07102070569536e-09    3.60342725496549e-09
94                       4                       4                2.828427    3.70081847211819e-09     5.2669750401597e-09    3.88613809120242e-09
95                       4                       4                       0                       0                       0                       0
96                       6                       6                5.656854    1.48597765819757e-06    2.18682419252652e-06    1.21949989246529e-06
97                       6                       6                2.828427    2.65074065679063e-08     3.8489869731219e-08    3.49819220285851e-08
98                       6                       6                       0    7.15761092193204e-09    1.04637309311622e-08    1.32588990214952e-08
99                       8                       4                5.656854    6.19158978094639e-08    1.44910126551575e-07    6.63667694824061e-08
100                       8                       4                2.828427    4.05812801065247e-08    9.44845152673313e-08    7.08099715096443e-08
101                       8                       4                       0    2.88541842439612e-10    6.62286660763684e-10    7.15414082072428e-10
102                      10                       6                5.656854    8.50656283728272e-06    2.51808208222191e-05    1.47368892263038e-05
103                      10                       6                2.828427    1.13987876134097e-07     3.3005039532792e-07    3.11828323508792e-07
104                      10                       6                       0    2.60783421800238e-08    7.38604846900761e-08    9.61597036851853e-08
105                      12                       4                5.656854    1.18011393831937e-07    6.98745082387726e-07    3.29991461994056e-07
106                      12                       4                2.828427    6.80616705067987e-08    3.92842297206147e-07    3.02143764491375e-07
107                      12                       4                       0    5.08100371283035e-10    3.25060360693683e-09    3.49056301187801e-09
108                      14                       6                5.656854    4.72122732626973e-06    6.73170601742099e-05    4.06862565500853e-05
109                      14                       6                2.828427    6.25935028670886e-08    7.82103213583185e-07    7.60213487496934e-07
110                      14                       6                       0    1.41884044982095e-08    1.60439117975796e-07    2.13731468477115e-07
111                      16                       4                5.656854    -1.0818759845442e-09    1.03689467047458e-06     4.9463511277532e-07
112                      16                       4                2.828427   -5.99982474113831e-10    5.72029933290942e-07    4.43762795951597e-07
113                      16                       4                       0    -4.9053464060944e-12    4.56728849912987e-09    4.96352592405743e-09
114                      18                       6                5.656854   -4.85054656383226e-06    6.69434940835928e-05    4.04434693588236e-05
115                      18                       6                2.828427   -6.41160031008821e-08    7.78458998509712e-07    7.56387647032902e-07
116                      18                       6                       0   -1.45094768154117e-08    1.59812852441995e-07    2.12823783863101e-07
117                      20                       4                5.656854   -1.18158815160261e-07    6.90854696605423e-07    3.26095491725085e-07
118                      20                       4                2.828427    -6.8223313720153e-08    3.88976942626257e-07    2.99023896284126e-07
119                      20                       4                       0   -5.10799273966394e-10    3.22354912664558e-09     3.4596760623201e-09
120                      22                       6                5.656854   -8.41678319235922e-06    2.47376827432342e-05    1.44640931965015e-05
121                      22                       6                2.828427   -1.13081817586246e-07    3.25151758129449e-07    3.06940825741742e-07
122                      22                       6                       0   -2.59301893267959e-08    7.29421543497849e-08    9.48882207270002e-08
123                      24                       4                5.656854   -6.08573852349622e-08    1.41744979587317e-07     6.4867834781253e-08
124                      24                       4                2.828427   -3.99847453338099e-08    9.26539008713661e-08    6.93867213442307e-08
125                      24                       4                       0   -2.85076944631328e-10    6.51359223567243e-10    7.03036266440889e-10
126                      26                       6                5.656854   -1.44966018313505e-06    2.12628725594961e-06    1.18446191252938e-06
127                      26                       6                2.828427   -2.59514363054185e-08    3.75607015624112e-08    3.41028075498806e-08
128                      26                       6                       0   -7.03229034621668e-09    1.02478796865071e-08    1.29718621221477e-08
129                      28                       4                5.656854   -5.76651981401402e-09    7.83212169120595e-09     3.4937252813035e-09
130                      28                       4                2.828427   -3.60933408973342e-09    5.12445266373331e-09    3.77734957047605e-09
131                      28                       4                       0                       0                       0                       0
132                      30                       6                5.656854     -4.929479795278e-08    4.46879227840941e-08    2.44191717388158e-08
133                      30                       6                2.828427    -1.1012739192744e-09    1.02164715910841e-09    9.13526472546502e-10
134                      30                       6                       0                       0                       0                       0
135                       0                       8                5.656854    3.53987217925649e-10    6.60314499690279e-09     4.6528731163364e-09
136                       0                       8                2.828427    1.36255095123809e-10    5.04983602090485e-09    5.78577475534124e-09
137                       0                       8                       0                       0                       0                       0
138                       2                      10                5.656854     1.4853492928846e-06    7.58455454253683e-07    7.52312849623082e-07
139                       2                      10                2.828427    2.73640982269611e-08    1.41376878070718e-08    2.25508723269136e-08
140                       2                      10                       0    6.65244352418775e-09    3.36098142920895e-09    7.73685032102526e-09
141                       4                       8                5.656854    4.50911934277235e-07    4.00185237175928e-07    2.86607390180605e-07
142                       4                       8                2.828427    2.43253354410001e-07    2.14883997281945e-07    2.49529561427925e-07
143                       4                       8                       0    1.96559241061344e-09    1.71756364623644e-09    2.80162005584767e-09
144                       6                      10                5.656854    9.21518036564055e-05    7.84787763523061e-05     8.2112501672507e-05
145                       6                      10                2.828427    8.55572159498941e-07    7.22089089972685e-07    1.19987102168529e-06
146                       6                      10                       0    1.51434558261402e-07    1.27056786997838e-07    2.84836430736111e-07
147                       8                       8                5.656854    8.15965031216649e-06    1.35251918800423e-05    1.01404066040977e-05
148                       8                       8                2.828427    2.74750179736321e-06    4.39557774763104e-06    5.30522903844291e-06
149                       8                       8                       0    1.64470603790884e-08    2.55861897366512e-08     4.2161330642025e-08
150                      10                      10                5.656854    0.000727039395644533     0.00143822360888634     0.00163707558582789
151                      10                      10                2.828427    4.11469947995175e-06    7.65308137954367e-06    1.35835845865449e-05
152                      10                      10                       0    5.20038447759032e-07    9.18211050050397e-07    2.16497971032279e-06
153                      12                       8                5.656854    1.84898896790805e-05    8.38697028980901e-05    6.77992115711141e-05
154                      12                       8                2.828427    4.69792458684267e-06    2.01074181583317e-05    2.56834847187936e-05
155                      12                       8                       0     2.3399481692797e-08    9.45714976902441e-08    1.62408312529921e-07
156                      14                      10                5.656854    0.000270123599423504     0.00374282631706674     0.00468939865959866
157                      14                      10                2.828427    1.70710812786034e-06    1.69682972485232e-05    3.22995749433511e-05
158                      14                      10                       0    2.34158809689415e-07    1.85312836343002e-06    4.59374980841677e-06
159                      16                       8                5.656854   -1.36355888152095e-07    0.000120900790756188    0.000100043257169144
160                      16                       8                2.828427   -3.36402078669526e-08    2.81305300263184e-05    3.67065739785828e-05
161                      16                       8                       0   -1.62660100854053e-10    1.29627907894269e-07     2.2660785480815e-07
162                      18                      10                5.656854   -0.000280701253289453     0.00372907656946576     0.00466759101902427
163                      18                      10                2.828427   -1.75389693660242e-06    1.69163582653901e-05    3.21747237642367e-05
164                      18                      10                       0   -2.39302005195415e-07    1.84821139065901e-06    4.57852288139601e-06
165                      20                       8                5.656854   -1.85170816339799e-05    8.29114337262348e-05    6.69518102845894e-05
166                      20                       8                2.828427   -4.71209960368564e-06    1.99261346437196e-05    2.54280518377886e-05
167                      20                       8                       0   -2.34930911851245e-08    9.38748006218018e-08     1.6107915152721e-07
168                      22                      10                5.656854   -0.000719830002670049     0.00141432680904135     0.00160646578524791
169                      22                      10                2.828427   -4.08819446261059e-06    7.55418971010527e-06    1.33849715070138e-05
170                      22                      10                       0   -5.17821847332503e-07     9.0859442075749e-07    2.13922055969551e-06
171                      24                       8                5.656854   -8.00137118905339e-06     1.3200667050609e-05    9.88266612455259e-06
172                      24                       8                2.828427   -2.70557976856062e-06    4.30929986741843e-06    5.19438033310254e-06
173                      24                       8                       0   -1.62500242452828e-08    2.51711489127037e-08    4.14288796252888e-08
174                      26                      10                5.656854   -8.96664069482755e-05    7.61663886039007e-05    7.95251413099007e-05
175                      26                      10                2.828427   -8.37330909289978e-07    7.04858000570143e-07    1.16914611176472e-06
176                      26                      10                       0   -1.48849747321926e-07    1.24559680952467e-07    2.78798848302014e-07
177                      28                       8                5.656854   -4.37213910139605e-07    3.87263115100984e-07    2.76947232999662e-07
178                      28                       8                2.828427   -2.36042731874995e-07    2.08342602200837e-07    2.41655701855956e-07
179                      28                       8                       0   -1.92257846070718e-09     1.6768467020671e-09    2.73134273121976e-09
180                      30                      10                5.656854   -1.43460968165615e-06    7.32344636843752e-07    7.25124065143385e-07
181                      30                      10                2.828427   -2.65460960786858e-08    1.37070176174787e-08    2.18295443940409e-08
182                      30                      10                       0   -6.48688724775498e-09    3.27514120599728e-09    7.52391541229992e-09
183                       0                      12                5.656854    2.05207051290778e-09    3.05148185699004e-08    4.67652632138103e-08
184                       0                      12                2.828427    1.28375636419116e-09     2.1881507664667e-08    5.37339353291929e-08
185                       0                      12                       0    8.83203599031639e-11    8.97734108418201e-11    4.04183175231175e-10
186                       2                      14                5.656854    8.08655092851323e-06    1.19088067198749e-06    4.09870219618305e-06
187                       2                      14                2.828427    1.25187697095965e-07    1.95506140524932e-08    1.03732092016151e-07
188                       2                      14                       0    3.11311496305722e-08    5.12594373235335e-09    3.56466925106103e-08
189                       4                      12                5.656854    8.47812139850914e-06    3.28365652394131e-06    5.50964348050429e-06
190                       4                      12                2.828427     3.0081224339852e-06     1.2104039720278e-06    3.14579560555764e-06
191                       4                      12                       0    1.84948158396947e-08    7.61530895944411e-09    2.64805942864788e-08
192                       6                      14                5.656854    0.000844512655174815    0.000185837764157335    0.000769261010182737
193                       6                      14                2.828427    5.18163597488885e-06    1.27345060026328e-06    7.44762430713697e-06
194                       6                      14                       0    6.78492108917278e-07    1.76325853042382e-07     1.3022356448841e-06
195                       8                      12                5.656854    0.000300062447348285     0.00023435177685189    0.000433709177592595
196                       8                      12                2.828427    4.52420234348358e-05    3.48494443462939e-05    9.70100954787677e-05
197                       8                      12                       0    1.61007546493293e-07    1.22252228659822e-07     4.4290529538197e-07
198                      10                      14                5.656854     0.00668292765721588     0.00409029353596923      0.0187086310927012
199                      10                      14                2.828427      2.427594431181e-05    1.45649206048143e-05    9.50321105427151e-05
200                      10                      14                       0    2.20498195477637e-06    1.28190595377171e-06    1.02296434099838e-05
201                      12                      12                5.656854    0.000532660032433194     0.00139084862403966     0.00303556130914025