   30
Geometry Step: 44
    N     -4.85373042     -0.25296560     -0.44881615
    C     -3.51168918     -0.46635080     -0.34758323 
    C     -2.94374491      0.80607762     -0.17592605 
    N     -3.93113677      1.75890367     -0.17519878  
    C     -5.03414060      1.09872600     -0.33735052
    C     -1.54019809      0.86403233     -0.04461843   
    N     -0.87722521     -0.30295559     -0.09546733  
    C     -1.53602942     -1.44560881     -0.26240451  
    N     -2.83235568     -1.61604719     -0.39512770   
    H      0.15790254      1.98422068      0.20683225    
    N     -0.86060407      1.99563126      0.12431723  
    H     -5.55713453     -0.96005696     -0.57923751   
    H     -6.00422940      1.55321359     -0.38219456    
    H     -1.37283894      2.85871726      0.15646649
    H     -0.92076378     -2.33477360     -0.29091582 
    C      3.95662424      0.57411455      0.38023974  
    C      4.48460500     -0.66261595      0.31531153   
    N      3.70405398     -1.77070444      0.15714009  
    C      2.32507475     -1.71397626      0.05029363   
    N      1.80465770     -0.45289518      0.11847516  
    C      2.50691372      0.71544299      0.27741729
    O      1.65987803     -2.71263985     -0.09094656  
    C      4.76635586      1.81738636      0.55171716  
    O      1.92541703      1.79100221      0.32608716  
    H      5.54881038     -0.83757349      0.38504528  
    H      4.11699946     -2.69101603      0.11067903 
    H      0.74188323     -0.38463320      0.03694902   
    H      5.82575139      1.58726374      0.61844888  
    H      4.59277919      2.48890521     -0.28753739 
    H      4.45087490      2.34131842      1.45244261  
