   29
Geometry Step: 53
    C      4.25707703      1.04018558     -0.04135190 
    C      4.90204332     -0.14698591     -0.03551292  
    N      4.19727539     -1.29890947     -0.03197236 
    C      2.79220362     -1.31442143     -0.03311327  
    N      2.15837343     -0.13710173     -0.03909724  
    C      2.81947191      1.01551362     -0.04300395  
    O      2.22458058     -2.39705852     -0.02809301  
    N      2.11595465      2.13405297     -0.04878258  
    H      1.07356784      2.10993260     -0.04295512  
    H      2.58510164      3.02248695     -0.04904819   
    H      5.97970831     -0.22922580     -0.03311186   
    H      4.78747629      1.97626986     -0.04395699   
    H      4.65570456     -2.19920152     -0.02734059   
    N     -3.66701707      1.93698671      0.05671153 
    C     -4.78019436      1.28138359      0.08868304   
    N     -4.60614046     -0.08110982      0.08950522  
    C     -3.26412816     -0.29093306      0.05494690  
    C     -2.68133140      0.98248514      0.03453339 
    N     -2.63001919     -1.47314561      0.04318806 
    C     -1.31845733     -1.36715031      0.00938370  
    C     -1.26020581      1.08313974     -0.00082577 
    N     -0.65957510     -0.17050866     -0.01030146 
    O     -0.56320925      2.09662973     -0.02152413  
    N     -0.57414573     -2.47608323     -0.01117892  
    H     -5.75139146      1.73424819      0.11272004 
    H     -5.31287485     -0.79621249      0.11100696  
    H      0.37783761     -0.18459139     -0.03017921  
    H     -1.05374932     -3.35677625      0.01398270  
    H      0.44621436     -2.44876226     -0.02056857  
