ITEM: TIMESTEP
0
ITEM: NUMBER OF ATOMS
422
ITEM: BOX BOUNDS pp pp pp
0.0000000000000000e+00 3.2000000000000000e+01
0.0000000000000000e+00 3.2000000000000000e+01
0.0000000000000000e+00 3.2000000000000000e+01
ITEM: ATOMS id xu yu zu fx fy fz
1        13.1290634706892        15.9666520925279        8.63998127685063    -0.00627665679094007     0.00115204191509536     0.00934247002956782
2        18.8750476492483        16.0367890508115        8.70441280917714     0.00507752783986903    -0.00101819244284501     0.00299891728323937
3        17.4369479472221        16.0223980660701        8.69145295330511    -0.00470416997700041   -0.000861472876763301     0.00949930146537841
4        14.5573232114247        15.9712031154115        8.64310117247565     0.00550388621705444      0.0013106295365508      0.0151727736401149
5        16.6889653292146        14.7376150116091        8.64474016144539     -0.0245003225842442      0.0144371981626313      0.0416192218389079
6         15.258093206461        14.7315588243055        8.64011621559359      0.0264470517047664      0.0158956393752766      0.0475768181204654
7        15.2979067408957        17.2485870812559        8.68241487586816      0.0215457868158934     -0.0130146986199783       0.034552519397188
8        16.6721475543704        17.1980119595314        8.63040751294888     -0.0237011522039167     -0.0150415801944465      0.0399473309052178
9         14.506682219154        13.5373715395717        8.64577529839662      0.0303469740409222     -0.0277037389278289       0.154313032073309
10        17.4602073382652        13.5510552594199        8.65650385553385     -0.0306735628023039     -0.0255022141609806       0.145826088564662
11        14.5626213281055        18.4711034292256        8.70660777733259      0.0259188249552315       0.021694231054747       0.116045785722072
12        17.4269343574879        18.3955750610115        8.62812424683265     -0.0362574992139811      0.0250121290841993       0.163361208672662
13        13.0961936957721        13.5313270234339        8.62573243553634     -0.0406024157789795     -0.0210910930947984       0.111911324921144
14         13.074752895349        18.3568588495096        8.60915408723531     -0.0455480764989862      0.0176065043967656       0.123929514261522
15        18.8894180058463        13.6066420732504        8.69529977967827       0.033041609882511     -0.0146265094609436      0.0903134909536754
16        18.8642115590013        18.4284082580854        8.67495578750499      0.0348768793416239      0.0172999557226769       0.099255092080941
17        12.4674508511306        17.2349749566316        8.69750501299164     -0.0143030164905811    -0.00847052932436262      0.0171285125012926
18        12.3939837254338        14.7360344817577        8.62160466669426      -0.016237189635898     0.00962944410399108      0.0250677839874318
19         19.564845261233        14.7966511768129        8.67507406454079      0.0140131639689194     0.00873776780540667      0.0176021771663476
20         19.570565802859        17.2278450707903        8.68322782783077      0.0137948685277619    -0.00837666521480888      0.0169653977501256
21        20.9075338119707         14.776833875169        8.60924878934665     -0.0318715442786443      0.0228855086710271      0.0693148196559761
22        20.9512566670018        17.1567535343268        8.65531530475105      -0.025925168452277     -0.0209730811072407      0.0559220862545521
23        10.9884239758698        14.7822571322013        8.62464830270871      0.0313579063016216      0.0249141137051653      0.0755292585627302
24        11.0175656973107        17.1475956564389         8.6561336841653      0.0259064624135797     -0.0217969272119051      0.0578375757336347
25        21.6166806295481        16.0219512469263        8.68680416880862    -0.00129172581236348   -0.000383289880444407    -0.00326772156092339
26        10.4180222872807        16.0120816914735        8.68818171280906     0.00136979058524568   -0.000206153429961289    -0.00351421905614963
27        21.5746810445423        18.1514071396446        8.62233499871826     -0.0136756486410304     0.00485846798296192      0.0774240087241784
28        21.5705376882493        13.7550569712439        8.61378540154917      -0.013883230559981    -0.00790586350487307      0.0777008808489491
29        10.3581857731288        18.1729965096976        8.65522102240133      0.0104796977185805     0.00505458124273365       0.069980168999409
30        10.3391965824028        13.7618005088721        8.63182559214235      0.0107399212858567    -0.00753627888347955      0.0763335942569419
31        12.6498199298621        12.6654079077127        8.70680310761944   -0.000552066190372132   -0.000538891305373614    -0.00911769338001862
32        12.5941989798047        19.3515788004147        8.65794547920543   -0.000622084740759865    0.000575421352020511    -0.00913188763082534
33        19.3558524495447        12.5978026512241         8.6323889165928    0.000662597958460659    -0.00070514632310313    -0.00899048801166068
34         19.355974243177        19.3397162964236        8.63927403603464    0.000771063839605819    0.000754843956602734    -0.00880408266698994
35         14.939939478519        12.5466134695317         8.6345029056521    0.000883518127332464    -0.00158402393296646    -0.00756457014390717
36        14.9699123413136        19.4162093787724        8.67133723263161    0.000798060130111892     0.00136534256447979     -0.0078295242898912
37        17.0599993253831        12.6130323111009         8.6988574013616    -0.00076138903459286    -0.00132593281524347    -0.00777716631139064
38         17.012161487378        19.4048175204316          8.657881029847   -0.000874596651969417     0.00143193001852743    -0.00770662679593314
39                       0                       0                5.656854                       0                       0                       0
40                       0                       0                2.828427                       0                       0                       0
41                       0                       0                       0                       0                       0                       0
42                       2                       2                5.656854    5.88469468962229e-10    8.29991286462909e-10    2.09933887000574e-10
43                       2                       2                2.828427                       0                       0                       0
44                       2                       2                       0                       0                       0                       0
45                       4                       0                5.656854                       0                       0                       0
46                       4                       0                2.828427                       0                       0                       0
47                       4                       0                       0                       0                       0                       0
48                       6                       2                5.656854    1.78444199350399e-08     3.6220696186631e-08    9.31399546779248e-09
49                       6                       2                2.828427    6.64428549525734e-10    1.37868707827276e-09    6.92488439820804e-10
50                       6                       2                       0                       0                       0                       0
51                       8                       0                5.656854    6.65223151455888e-10    5.24201950827065e-11    4.68026465218211e-10
52                       8                       0                2.828427     3.7005628538003e-10   -4.03056225505244e-11     4.6872503585712e-10
53                       8                       0                       0                       0                       0                       0
54                      10                       2                5.656854    7.76159929847666e-08    3.01540353723387e-07    7.93538679498313e-08
55                      10                       2                2.828427     2.8122679068826e-09    1.10011542693175e-08    5.62158553757668e-09
56                      10                       2                       0     9.7210497295354e-10    4.19273391756147e-09    3.24581741549113e-09
57                      12                       0                5.656854    1.36250584051666e-09    2.10890098249308e-10    2.19935437502845e-09
58                      12                       0                2.828427    1.70668898332981e-09    2.16628879722346e-10    5.16783959958241e-09
59                      12                       0                       0                       0                       0                       0
60                      14                       2                5.656854    4.70479796660149e-08    7.39458993309341e-07    1.98103188334432e-07
61                      14                       2                2.828427    1.59240592805816e-09    2.56916038109331e-08    1.33383285561798e-08
62                      14                       2                       0    8.00713520661231e-10    1.09414119868314e-08    8.56166347761704e-09
63                      16                       0                5.656854   -1.73908737978283e-11    1.96496874949095e-10    3.29598099746291e-09
64                      16                       0                2.828427   -5.26766970251479e-12    1.76815964343311e-10    7.24190907241774e-09
65                      16                       0                       0                       0                       0                       0
66                      18                       2                5.656854   -4.81691573735054e-08    7.29747827931445e-07    1.95895674635258e-07
67                      18                       2                2.828427   -1.64778767792296e-09     2.5342806924746e-08    1.31754893850633e-08
68                      18                       2                       0    -8.0015935988683e-10    1.06816074157495e-08    8.37395614236666e-09
69                      20                       0                5.656854   -1.35471306980075e-09     1.6976739837947e-10    2.18341928495663e-09
70                      20                       0                2.828427   -1.49144203849471e-09     1.1796284975055e-09    4.66740032898312e-09
71                      20                       0                       0                       0                       0                       0
72                      22                       2                5.656854   -7.63796636151701e-08    2.97521109692644e-07    7.84991527635909e-08
73                      22                       2                2.828427   -2.76806443843124e-09    1.08570174316272e-08    5.56221592736684e-09
74                      22                       2                       0    -9.4307028744015e-10    4.14260717533338e-09    3.21459474973461e-09
75                      24                       0                5.656854   -6.65798972572854e-10    6.64091419197399e-11    4.63598386605613e-10
76                      24                       0                2.828427   -3.93306597423378e-10    4.47330384036502e-11    4.91814507258834e-10
77                      24                       0                       0                       0                       0                       0
78                      26                       2                5.656854   -1.76112810979583e-08    3.53050336889567e-08    9.07886994044512e-09
79                      26                       2                2.828427    -6.2715171146181e-10    1.31511272177119e-09    6.59211081263518e-10
80                      26                       2                       0                       0                       0                       0
81                      28                       0                5.656854                       0                       0                       0
82                      28                       0                2.828427                       0                       0                       0
83                      28                       0                       0                       0                       0                       0
84                      30                       2                5.656854   -5.56646647577299e-10    7.76255093519018e-10    1.95263457017171e-10
85                      30                       2                2.828427                       0                       0                       0
86                      30                       2                       0                       0                       0                       0
87                       0                       4                5.656854    1.33420082633723e-11    3.15763381515915e-10    9.59836993322154e-11
88                       0                       4                2.828427                       0                       0                       0
89                       0                       4                       0                       0                       0                       0
90                       2                       6                5.656854    1.04477130466075e-07    9.59732469544398e-08    3.55619343540245e-08
91                       2                       6                2.828427    3.91082125678147e-09    3.55220560254722e-09    2.56495581600132e-09
92                       2                       6                       0    1.15286150035737e-09     1.0730387384098e-09    1.19331632305915e-09
93                       4                       4                5.656854    1.15609496672903e-08    1.59042191024817e-08    4.81527257167634e-09
94                       4                       4                2.828427    1.40064364843867e-08    1.94980097021786e-08    1.14458031633351e-08
95                       4                       4                       0    1.13367606130617e-10    1.74576058784406e-10    1.54368048253088e-10
96                       6                       6                5.656854    3.39831822661398e-06    5.08704862079441e-06    1.92724833613416e-06
97                       6                       6                2.828427    9.41998999028454e-08    1.38811319318177e-07     1.0173283167539e-07
98                       6                       6                       0     3.7089948472815e-08    5.39896449964341e-08     5.8525464596623e-08
99                       8                       4                5.656854    1.29520936497422e-07    3.08273938216896e-07    9.59103619034286e-08
100                       8                       4                2.828427    1.33135182807786e-07     3.1351838965347e-07    1.88664270847325e-07
101                       8                       4                       0    1.79844330046623e-09    4.23194927913007e-09     3.7965074278359e-09
102                      10                       6                5.656854    2.15443930582849e-05    6.50654765501545e-05    2.59683450958458e-05
103                      10                       6                2.828427    4.52579386591974e-07    1.34386447942891e-06    1.02677214952912e-06
104                      10                       6                       0    1.38271417446155e-07    4.01453058379971e-07    4.48902573729955e-07
105                      12                       4                5.656854    2.60705927938495e-07    1.56739954220162e-06    5.05132947315691e-07
106                      12                       4                2.828427    2.34356161009384e-07    1.37913535906891e-06    8.55244261925953e-07
107                      12                       4                       0    2.95183712759296e-09    1.69985740687081e-08    1.55166647369226e-08
108                      14                       6                5.656854    1.17388870062485e-05    0.000183693073580343    7.61360604531661e-05
109                      14                       6                2.828427    2.38109379481821e-07    3.33655901613666e-06    2.63657569851434e-06
110                      14                       6                       0    7.10216718374484e-08    8.90819904044369e-07    1.02427940666947e-06
111                      16                       4                5.656854    -8.6850017536245e-09    2.32688710260575e-06    7.59832106680071e-07
112                      16                       4                2.828427     -8.148044195338e-09    1.99683394218761e-06    1.25354101760875e-06
113                      16                       4                       0   -1.01072395865038e-10    2.37711633282316e-08    2.19801787822337e-08
114                      18                       6                5.656854   -1.18446769955578e-05    0.000179562113607046    7.46645571332708e-05
115                      18                       6                2.828427   -2.47939173765091e-07    3.26027375463853e-06    2.58166432766111e-06
116                      18                       6                       0   -7.56074145184652e-08    8.71680067274982e-07     1.0037370616586e-06
117                      20                       4                5.656854   -2.53577001505491e-07    1.54581698549662e-06    4.99757301267791e-07
118                      20                       4                2.828427    -2.2884500760803e-07    1.35384213820702e-06    8.41988066619581e-07
119                      20                       4                       0   -2.85343085843792e-09    1.64385242229397e-08    1.50761258563415e-08
120                      22                       6                5.656854   -2.14255903234904e-05    6.45187471585511e-05    2.58495237562295e-05
121                      22                       6                2.828427   -4.44632896412405e-07    1.32051692055334e-06    1.01347482945018e-06
122                      22                       6                       0   -1.34645760126368e-07    3.91333465002387e-07    4.39155539462014e-07
123                      24                       4                5.656854   -1.28879772677112e-07    3.03294252676389e-07      9.450410849554e-08
124                      24                       4                2.828427   -1.31022250024015e-07    3.06801063993758e-07    1.85248541306877e-07
125                      24                       4                       0   -1.76663784728493e-09    4.13736953962711e-09     3.7223919812534e-09
126                      26                       6                5.656854   -3.30903674943038e-06    4.86784161539717e-06    1.84420200602304e-06
127                      26                       6                2.828427   -9.18158083802611e-08    1.33515414891916e-07    9.80535450212228e-08
128                      26                       6                       0   -3.56736538307043e-08    5.14094764029574e-08     5.6014652104228e-08
129                      28                       4                5.656854   -1.11403164294927e-08    1.51141033086101e-08    4.57063189856428e-09
130                      28                       4                2.828427   -1.35841608932107e-08    1.86565234401959e-08     1.0962804517998e-08
131                      28                       4                       0   -1.52049054028384e-10    2.09060441615178e-10     1.8958484642856e-10
132                      30                       6                5.656854   -9.76695844376723e-08    8.89326979546598e-08    3.28541870739844e-08
133                      30                       6                2.828427   -3.69471286550054e-09     3.3211541899456e-09     2.3966101052907e-09
134                      30                       6                       0   -1.09724452356251e-09       1.00945866734e-09    1.12123745375991e-09
135                       0                       8                5.656854     9.5182077234971e-10    1.30070479366196e-08    6.17120366664847e-09
136                       0                       8                2.828427    9.16069586537601e-10    1.48347375886847e-08    1.39118945825566e-08
137                       0                       8                       0    9.84265860913031e-12     1.5449453051792e-10    2.31347940246703e-10
138                       2                      10                5.656854    3.40774353912681e-06    1.71485931251518e-06    1.17423743681708e-06
139                       2                      10                2.828427    9.64080888656998e-08    4.90721919737794e-08    6.43118958325618e-08
140                       2                      10                       0    3.88602879835669e-08    1.98868864412067e-08    3.80934324587733e-08
141                       4                       8                5.656854    1.08218318539485e-06    9.63478506817996e-07    4.71343903967861e-07
142                       4                       8                2.828427    9.01971495076268e-07    7.99636037562772e-07    7.53609208764016e-07
143                       4                       8                       0    1.04927940165982e-08      9.246381734209e-09     1.2820227987781e-08
144                       6                      10                5.656854    0.000296146702327356    0.000253262286870826    0.000183030369416526
145                       6                      10                2.828427    4.20495169851004e-06    3.56431892338402e-06    4.87149331824724e-06
146                       6                      10                       0    9.21194989106607e-07    7.72669023449219e-07    1.51839482025405e-06
147                       8                       8                5.656854    2.38604169894268e-05    4.09269742844191e-05    2.09134475039687e-05
148                       8                       8                2.828427    1.25188885158224e-05     2.0658681092605e-05    2.02189758001067e-05
149                       8                       8                       0     9.5087610193901e-08    1.51371737226268e-07    2.15959700926853e-07
150                      10                      10                5.656854     0.00287788735803446     0.00591847390288634      0.0046419544764942
151                      10                      10                2.828427    2.47623850032056e-05    4.83674343769545e-05    7.06172360024794e-05
152                      10                      10                       0    3.59702990299307e-06    6.57641260368382e-06    1.36244931952335e-05
153                      12                       8                5.656854    6.29500677853416e-05    0.000291384764748985     0.00016232545519994
154                      12                       8                2.828427    2.38476183631095e-05    0.000106552266817394     0.00011120430045774
155                      12                       8                       0    1.43160846986491e-07    6.06315337369152e-07    9.07557699186578e-07
156                      14                      10                5.656854    0.000912854561839738      0.0152715681285924      0.0133049695339616
157                      14                      10                2.828427    8.72293998302238e-06    0.000113216691187124    0.000180068041962104
158                      14                      10                       0    1.39800015652469e-06    1.35599691049258e-05    2.98118253958542e-05
159                      16                       8                5.656854   -3.83676032430198e-06    0.000420075916935606    0.000241084816419621
160                      16                       8                2.828427   -1.33095086067586e-06    0.000147627376043094    0.000158231195118353
161                      16                       8                       0   -7.18249007943766e-09    8.17963360727788e-07    1.25148551569057e-06
162                      18                      10                5.656854   -0.000978181781075651      0.0149251868205422      0.0130698359820665
163                      18                      10                2.828427   -9.50980075214448e-06    0.000109245758403406    0.000173967756198188
164                      18                      10                       0   -1.54807173184285e-06    1.31900753552452e-05    2.89967793108584e-05
165                      20                       8                5.656854   -6.00789575344408e-05    0.000286907236024856     0.00016098901750373
166                      20                       8                2.828427   -2.28007063466594e-05    0.000103560362461991    0.000108639234087483
167                      20                       8                       0   -1.38631473336784e-07     5.8719112690026e-07    8.81399431781716e-07
168                      22                      10                5.656854    -0.00286317458275349     0.00579153926125688      0.0045754882885449
169                      22                      10                2.828427   -2.41644297288511e-05    4.70371032483428e-05     6.9063715338611e-05
170                      22                      10                       0    -3.4811737192492e-06    6.37234756214305e-06    1.32327831225872e-05
171                      24                       8                5.656854   -2.36261882026719e-05    3.96172032543054e-05    2.02916532188982e-05
172                      24                       8                2.828427   -1.23222721056122e-05    2.00444520556249e-05    1.96910719426997e-05
173                      24                       8                       0   -9.29697807642009e-08    1.46773448411555e-07    2.10030055124496e-07
174                      26                      10                5.656854    -0.00027989539066007    0.000235269595966096    0.000169492247358375
175                      26                      10                2.828427   -4.03836780708608e-06     3.3781113974233e-06    4.61376089098318e-06
176                      26                      10                       0   -8.91110499537168e-07    7.41201419392651e-07    1.45583007590626e-06
177                      28                       8                5.656854   -1.01572498821827e-06    8.92637328315621e-07    4.35306262170702e-07
178                      28                       8                2.828427   -8.57165089948488e-07     7.5103302896563e-07    7.07565205052148e-07
179                      28                       8                       0   -1.00650064169174e-08    8.78784549920079e-09    1.21852745719732e-08
180                      30                      10                5.656854   -3.12746481023015e-06    1.57095626501235e-06    1.06577514727156e-06
181                      30                      10                2.828427   -8.99454671100987e-08    4.56947523012825e-08    5.94964409181523e-08
182                      30                      10                       0   -3.67799364306388e-08     1.8759826130978e-08    3.57628100726724e-08
183                       0                      12                5.656854     9.6241439323119e-09    6.07759291566106e-08    6.44089930144188e-08
184                       0                      12                2.828427    8.98175830069393e-09    6.84313252627587e-08    1.38252311941027e-07
185                       0                      12                       0    1.04905355372163e-10    1.02335100519358e-09    2.95339716709478e-09
186                       2                      14                5.656854     1.9400425940236e-05    2.66003106766263e-06    6.69735847794878e-06
187                       2                      14                2.828427    4.70564969869507e-07     6.8538990543603e-08    3.14705031256476e-07
188                       2                      14                       0    1.63587016732307e-07    2.50882852177304e-08     1.5989299318611e-07
189                       4                      12                5.656854     2.4582774440502e-05    9.17590842167145e-06    1.09378716372398e-05
190                       4                      12                2.828427    1.35418160507018e-05     5.2581055920197e-06    1.15330766838593e-05
191                       4                      12                       0    1.06992574279755e-07    4.29893874598173e-08    1.32565143002151e-07
192                       6                      14                5.656854     0.00323643933869853    0.000632020282112984     0.00203289026450314
193                       6                      14                2.828427    3.03065979219005e-05    6.76198737472038e-06     3.5821530270434e-05
194                       6                      14                       0    4.62996611653254e-06    1.13081053557529e-06    7.79377209192677e-06
195                       8                      12                5.656854     0.00137357967479717      0.0010728688191109      0.0014085476318218
196                       8                      12                2.828427    0.000298631345314671    0.000230139632228551    0.000543643492599067
197                       8                      12                       0    1.17413137197855e-06    8.90151801595384e-07    2.89397325429261e-06
198                      10                      14                5.656854     -0.0253271069199611    -0.00963140851536545      -0.160308497602986
199                      10                      14                2.828427    0.000186651460362272    0.000109178090967107    0.000655348442230977
200                      10                      14                       0    1.75212188208584e-05    1.00542380004725e-05    7.54999107594418e-05
201                      12                      12                5.656854     0.00175357163271277     0.00554259589550866     0.00785367994395145