ITEM: TIMESTEP
0
ITEM: NUMBER OF ATOMS
422
ITEM: BOX BOUNDS ff ff ff
0.0000000000000000e+00 2.3200000000000000e+02
0.0000000000000000e+00 2.3200000000000000e+02
0.0000000000000000e+00 2.3200000000000000e+02
ITEM: ATOMS id xu yu zu fx fy fz
1        113.126061326025        115.963649947863        108.636983132186        756.153807144296       -446.639401851019       -152.451698704202
2          118.8377757731        115.999517174664        108.667144933029        371.450321884483          1100.370944921       -284.804581373869
3        117.435687660029        116.021137778877        108.690196666112       -355.919828063111       -1231.11770817141        558.047760566813
4        114.567786444316        115.981666348303        108.653568405367         811.29684814043        1993.68030821655        51.4301113720108
5         116.72758849053        114.776238172924         108.68336732276       -1634.84969026285       -327.971037403582        332.379063231332
6        115.244730873504        114.718196491349        108.626757882637        5604.16397770764        5661.67176107585       -731.402681788759
7        115.317866714359         117.26854705472        108.702378849332       -7609.39359417894        -1692.8745762741        1040.92169086612
8        116.652776535802        117.178640940963        108.611040494381        7470.16698439271        3437.67927203628       -1404.24070595082
9        114.542267509133        113.572956829551        108.681364588376       -9997.01758065633        10551.8335104384         1494.3042446389
10        117.419207103439        113.510055024593        108.615507620707        17020.0077852231        39761.6199530262       -1869.47258968435
11        114.544335662749        118.452817763869        108.688326111976       -34633.1025379429       -90161.7096082849        8276.04489946107
12        117.495483157212        118.464123860736        108.696677046557        9498.96165851117       -34191.6525980327        3711.74064774463
13        113.097535729035        113.532669056697        108.627078468799        30895.8503182806        53354.5077529182       -4030.74286248104
14        113.147025642575        118.429131596736        108.681430834461        13924.4644699884       -21418.6522903409        1748.71740618685
15        118.868973449864        113.586197517268        108.674859223696        -11331.964724742        17584.8813529363        186.058301295413
16        118.833832867156         118.39802956624         108.64458109566       -1482.91792788014        -10731.173488708       -1030.43170218688
17        112.443561227007        117.211085332508        108.673619388868       -1234.46137665751       -475.276531010334        217.937520881803
18        112.394583504928        114.736634261252        108.622208446189        3541.37037938252        1136.66462966024        -460.84893403028
19        119.579178781798        114.810984697377        108.689411585105       -5421.86968982306       -498.527085732504        794.078209557028
20        119.567521474052        117.224800741983        108.680187499023        1542.26417332085        -2125.5330525617        210.516524204088
21        120.921342700987        114.790642764185        108.623061678363        1730.27625918848        13135.5504903677       -521.956422216317
22        120.990576648774        117.196073516099        108.694639286523       -9429.20141109354       -13855.2835531924         285.13846623542
23         111.03547383968        114.829306996011        108.671702166519        2706.46259734621        7943.47325396705         890.04228857651
24        111.005833688065        117.135863647194         108.64440567492        7216.55840597454       -12965.3749164868        38.3304671585751
25        121.627351862428        116.032622479806        108.697479401689        4240.29412487872       -3526.44538818916        137.626905589364
26        110.337554776461        115.931614180654        108.607718201989        -6042.0051984127        3166.29458639748       -484.443168402851
27        121.634449523537         118.21117561864        108.682107477713        12268.4880227313        19340.5082543109       -238.710297821409
28        121.565195698906        113.749714981901        108.608447412206        9529.25683843181       -15401.3509556293       -216.482611084692
29        110.344965351737        118.159776088306         108.64200460101       -10401.6053742643        16113.5012795432       -37.7940944612183
30        110.369027964596        113.791631891065        108.661660974335       -8877.37094400846       -13820.0039936391       -133.399449741312
31        112.627440083753        112.643028061604        108.684427261511        -31791.256363869        -60164.632748177        3878.12265159855
32        112.560684684291        119.318064504901        108.624435183692       -17974.7148392106        27252.8808689273       -1747.19708365493
33        119.395547983343        112.637498185023        108.672088450392          12666.87517873       -22821.0983539267       -66.5696722000364
34        119.378877196122        119.362619249369         108.66218098898        9772.37679013497        17293.1013702376        315.312361757527
35        114.947257634623        112.553931625635        108.641825061756        8329.08689928662       -20954.3429785068       -812.810293780034
36        114.908592310029        119.354889347488        108.610021201347        38627.1047913574        95650.0557517932       -8302.76094162963
37        117.007868749061        112.560901734779         108.64673082504       -19188.7712889731       -44275.8939846102        1456.27534071683
38        116.974555551824        119.367211584877        108.620279094293       -21116.5082619977        36607.2789099553       -3096.50507044621
39                     100                     100              105.656854                       0                       0                       0
40                     100                     100              102.828427                       0                       0                       0
41                     100                     100                     100                       0                       0                       0
42                     102                     102              105.656854                       0                       0                       0
43                     102                     102              102.828427                       0                       0                       0
44                     102                     102                     100                       0                       0                       0
45                     104                     100              105.656854                       0                       0                       0
46                     104                     100              102.828427                       0                       0                       0
47                     104                     100                     100                       0                       0                       0
48                     106                     102              105.656854                       0                       0                       0
49                     106                     102              102.828427                       0                       0                       0
50                     106                     102                     100                       0                       0                       0
51                     108                     100              105.656854                       0                       0                       0
52                     108                     100              102.828427                       0                       0                       0
53                     108                     100                     100                       0                       0                       0
54                     110                     102              105.656854                       0                       0                       0
55                     110                     102              102.828427                       0                       0                       0
56                     110                     102                     100                       0                       0                       0
57                     112                     100              105.656854                       0                       0                       0
58                     112                     100              102.828427                       0                       0                       0
59                     112                     100                     100                       0                       0                       0
60                     114                     102              105.656854                       0                       0                       0
61                     114                     102              102.828427                       0                       0                       0
62                     114                     102                     100                       0                       0                       0
63                     116                     100              105.656854                       0                       0                       0
64                     116                     100              102.828427                       0                       0                       0
65                     116                     100                     100                       0                       0                       0
66                     118                     102              105.656854                       0                       0                       0
67                     118                     102              102.828427                       0                       0                       0
68                     118                     102                     100                       0                       0                       0
69                     120                     100              105.656854                       0                       0                       0
70                     120                     100              102.828427                       0                       0                       0
71                     120                     100                     100                       0                       0                       0
72                     122                     102              105.656854                       0                       0                       0
73                     122                     102              102.828427                       0                       0                       0
74                     122                     102                     100                       0                       0                       0
75                     124                     100              105.656854                       0                       0                       0
76                     124                     100              102.828427                       0                       0                       0
77                     124                     100                     100                       0                       0                       0
78                     126                     102              105.656854                       0                       0                       0
79                     126                     102              102.828427                       0                       0                       0
80                     126                     102                     100                       0                       0                       0
81                     128                     100              105.656854                       0                       0                       0
82                     128                     100              102.828427                       0                       0                       0
83                     128                     100                     100                       0                       0                       0
84                     130                     102              105.656854                       0                       0                       0
85                     130                     102              102.828427                       0                       0                       0
86                     130                     102                     100                       0                       0                       0
87                     100                     104              105.656854                       0                       0                       0
88                     100                     104              102.828427                       0                       0                       0
89                     100                     104                     100                       0                       0                       0
90                     102                     106              105.656854                       0                       0                       0
91                     102                     106              102.828427                       0                       0                       0
92                     102                     106                     100                       0                       0                       0
93                     104                     104              105.656854                       0                       0                       0
94                     104                     104              102.828427                       0                       0                       0
95                     104                     104                     100                       0                       0                       0
96                     106                     106              105.656854                       0                       0                       0
97                     106                     106              102.828427                       0                       0                       0
98                     106                     106                     100                       0                       0                       0
99                     108                     104              105.656854                       0                       0                       0
100                     108                     104              102.828427                       0                       0                       0
101                     108                     104                     100                       0                       0                       0
102                     110                     106              105.656854                       0                       0                       0
103                     110                     106              102.828427                       0                       0                       0
104                     110                     106                     100                       0                       0                       0
105                     112                     104              105.656854                       0                       0                       0
106                     112                     104              102.828427                       0                       0                       0
107                     112                     104                     100                       0                       0                       0
108                     114                     106              105.656854                       0                       0                       0
109                     114                     106              102.828427                       0                       0                       0
110                     114                     106                     100                       0                       0                       0
111                     116                     104              105.656854                       0                       0                       0
112                     116                     104              102.828427                       0                       0                       0
113                     116                     104                     100                       0                       0                       0
114                     118                     106              105.656854                       0                       0                       0
115                     118                     106              102.828427                       0                       0                       0
116                     118                     106                     100                       0                       0                       0
117                     120                     104              105.656854                       0                       0                       0
118                     120                     104              102.828427                       0                       0                       0
119                     120                     104                     100                       0                       0                       0
120                     122                     106              105.656854                       0                       0                       0
121                     122                     106              102.828427                       0                       0                       0
122                     122                     106                     100                       0                       0                       0
123                     124                     104              105.656854                       0                       0                       0
124                     124                     104              102.828427                       0                       0                       0
125                     124                     104                     100                       0                       0                       0
126                     126                     106              105.656854                       0                       0                       0
127                     126                     106              102.828427                       0                       0                       0
128                     126                     106                     100                       0                       0                       0
129                     128                     104              105.656854                       0                       0                       0
130                     128                     104              102.828427                       0                       0                       0
131                     128                     104                     100                       0                       0                       0
132                     130                     106              105.656854                       0                       0                       0
133                     130                     106              102.828427                       0                       0                       0
134                     130                     106                     100                       0                       0                       0
135                     100                     108              105.656854                       0                       0                       0
136                     100                     108              102.828427                       0                       0                       0
137                     100                     108                     100                       0                       0                       0
138                     102                     110              105.656854                       0                       0                       0
139                     102                     110              102.828427                       0                       0                       0
140                     102                     110                     100                       0                       0                       0
141                     104                     108              105.656854                       0                       0                       0
142                     104                     108              102.828427                       0                       0                       0
143                     104                     108                     100                       0                       0                       0
144                     106                     110              105.656854                       0                       0                       0
145                     106                     110              102.828427                       0                       0                       0
146                     106                     110                     100                       0                       0                       0
147                     108                     108              105.656854                       0                       0                       0
148                     108                     108              102.828427                       0                       0                       0
149                     108                     108                     100                       0                       0                       0
150                     110                     110              105.656854                       0                       0                       0
151                     110                     110              102.828427                       0                       0                       0
152                     110                     110                     100                       0                       0                       0
153                     112                     108              105.656854                       0                       0                       0
154                     112                     108              102.828427                       0                       0                       0
155                     112                     108                     100                       0                       0                       0
156                     114                     110              105.656854                       0                       0                       0
157                     114                     110              102.828427                       0                       0                       0
158                     114                     110                     100                       0                       0                       0
159                     116                     108              105.656854                       0                       0                       0
160                     116                     108              102.828427                       0                       0                       0
161                     116                     108                     100                       0                       0                       0
162                     118                     110              105.656854                       0                       0                       0
163                     118                     110              102.828427                       0                       0                       0
164                     118                     110                     100                       0                       0                       0
165                     120                     108              105.656854                       0                       0                       0
166                     120                     108              102.828427                       0                       0                       0
167                     120                     108                     100                       0                       0                       0
168                     122                     110              105.656854                       0                       0                       0
169                     122                     110              102.828427                       0                       0                       0
170                     122                     110                     100                       0                       0                       0
171                     124                     108              105.656854                       0                       0                       0
172                     124                     108              102.828427                       0                       0                       0
173                     124                     108                     100                       0                       0                       0
174                     126                     110              105.656854                       0                       0                       0
175                     126                     110              102.828427                       0                       0                       0
176                     126                     110                     100                       0                       0                       0
177                     128                     108              105.656854                       0                       0                       0
178                     128                     108              102.828427                       0                       0                       0
179                     128                     108                     100                       0                       0                       0
180                     130                     110              105.656854                       0                       0                       0
181                     130                     110              102.828427                       0                       0                       0
182                     130                     110                     100                       0                       0                       0
183                     100                     112              105.656854                       0                       0                       0
184                     100                     112              102.828427                       0                       0                       0
185                     100                     112                     100                       0                       0                       0
186                     102                     114              105.656854                       0                       0                       0
187                     102                     114              102.828427                       0                       0                       0
188                     102                     114                     100                       0                       0                       0
189                     104                     112              105.656854                       0                       0                       0
190                     104                     112              102.828427                       0                       0                       0
191                     104                     112                     100                       0                       0                       0
192                     106                     114              105.656854                       0                       0                       0
193                     106                     114              102.828427                       0                       0                       0
194                     106                     114                     100                       0                       0                       0
195                     108                     112              105.656854                       0                       0                       0
196                     108                     112              102.828427                       0                       0                       0
197                     108                     112                     100                       0                       0                       0
198                     110                     114              105.656854                       0                       0                       0
199                     110                     114              102.828427                       0                       0                       0
200                     110                     114                     100                       0                       0                       0
201                     112                     112              105.656854                       0                       0                       0