ITEM: TIMESTEP
0
ITEM: NUMBER OF ATOMS
422
ITEM: BOX BOUNDS pp pp pp
0.0000000000000000e+00 3.2000000000000000e+01
0.0000000000000000e+00 3.2000000000000000e+01
0.0000000000000000e+00 3.2000000000000000e+01
ITEM: ATOMS id xu yu zu fx fy fz
1        13.1827828850039        16.0203715068426        8.69370069116532       -3.26233441926867       -2.41458544954041      -0.386249049744296
2         18.853835360627        16.0155767621903        8.68320052055587       0.590226918021863        0.54886251725672       0.200512326636835
3        17.4400860312645        16.0255361501125        8.69459103734757       -2.49564745149612       -3.00671774379917      -0.555027048492621
4        14.5458071295737        15.9596870335605        8.63158509062463        4.57182082780578        4.56560477720299        1.03915809134384
5        16.7463798227313        14.7950295051258        8.70215465496211       -4.81070246672831       -4.89612945287257       -1.29554037709979
6        15.2485798143398        14.7220454321843        8.63060282347238        4.84176169630811        4.69157584700508       0.832611733220013
7         15.317141400968        17.2678217413282        8.70164953594046       -6.26418052105709       -6.70123784011758         -1.355310166747
8        16.6560222484233        17.1818866535842        8.61428220700171        7.61538294742717        7.85365156681735        1.59087714928815
9        14.5536366790909        13.5843259995087        8.69272975833355       -4.11328393590157       -4.82641787178245      -0.821255167801753
10        17.4179701938948        13.5088181150495        8.61426671116346        5.57099752808099        4.79751556536061        1.35827079275527
11        14.5245329149216        18.4330150160417         8.6685193641487       0.647328319173194         2.0105528974712       0.295228119231666
12        17.4812115343561        18.4498522378797        8.68240142370086       -3.55965230611413        -3.2891018034231       -0.78048687703881
13        13.1198654986972        13.5549988263591        8.64940423846147        3.14156871547516        2.70823367399175       0.596130685714404
14        13.1073620017304        18.3894679558911        8.64176319361676        2.20082738679972        1.97983998348016       0.175693969963035
15        18.8909366512011        13.6081607186051        8.69681842503305       -3.97440663038683       -3.47525375294141      -0.921909313296915
16        18.8388563496644        18.4030530487486         8.6496005781681        1.74661904929333        1.28697479754798       0.225425403711337
17        12.4592757982892        17.2267999037902        8.68932996015022       -2.66638431206791       -2.74887687916593       -0.37874527736617
18        12.4457016148571         14.787752371181        8.67332255611753       -2.55620027003674       -1.66550812915301      -0.656184381037105
19        19.5860648706532         14.817870786233        8.69629367396095       -1.16515519413793      -0.393291673171118       0.209142598287123
20        19.5633669925173        17.2206462604486        8.67602901748909       0.268470283347596       0.468802469822975       0.213365518155448
21        20.9751362661487         14.844436329347        8.67685124352465       -2.86104319833357       -3.43180488088713      -0.447348186497626
22        20.9936083846471        17.1991052519721        8.69766702239635       -5.82921496818371       -6.67553733659512      -0.783808254146916
23        10.9813299232381        14.7751630795696          8.617554250077        6.51770074503679         7.3348663842588        1.25433079989048
24        11.0139322823079        17.1439622414362        8.65250026916251        1.61189439893427       0.272403554435283       0.315734191571132
25        21.5713912838881        15.9766619012663        8.64151482314857        4.49159650257646        3.69703860655795       0.508036970541728
26        10.3972625967952        15.9913220009881        8.66742202232363       -1.80614679486602       -3.14827743780865      -0.674438388036038
27        21.5970786082696        18.1738047033719        8.64473256244556        3.53932524407389        3.75037555836514     -0.0124776882643827
28        21.5791719574311        13.7636912404257        8.62241967073094       0.856966665744955        2.00930742750057       0.164408292728398
29        10.3164390354797        18.1312497720485         8.6134742847522       0.321799756250825        1.07394957438485      0.0656545948299756
30        10.3675670249617         13.790170951431        8.66019603470124       -2.66933103974649       -3.15485492970459      -0.130117364842344
31        12.6224281455594        12.6380161234101        8.67941132331679      -0.691635399058465       -1.06391252720055      -0.129058724223212
32        12.5496930410933        19.3070728617032          8.613439540494      0.0621100765025504       0.388628392692191    -0.00206551726876796
33        19.3552088746879        12.5971590763673        8.63174534173603       0.471841990222756        1.25024665510956        0.26975476757173
34        19.3637136385638        19.3474556918104        8.64701343142141      0.0779461686318941      0.0959222736205166     0.00978146400043223
35        14.9413478117088        12.5480218027214        8.63591123884187       0.266553402868998        1.15873155291131        0.31323427638081
36        14.9939599101152         19.440256947574        8.69538480143319      -0.792899450599455      -0.867597667399361      -0.159462207167623
37        16.9719236974047        12.5249566831225        8.61078177338319       0.118424672295214       0.144428231134378      -0.147918227414144
38        17.0579342147901        19.4505902478437        8.70365375725913     -0.0129449368885257      -0.328406931365222    5.04706636994178e-05
39                       0                       0                5.656854                       0                       0                       0
40                       0                       0                2.828427                       0                       0                       0
41                       0                       0                       0                       0                       0                       0
42                       2                       2                5.656854                       0                       0                       0
43                       2                       2                2.828427                       0                       0                       0
44                       2                       2                       0                       0                       0                       0
45                       4                       0                5.656854                       0                       0                       0
46                       4                       0                2.828427                       0                       0                       0
47                       4                       0                       0                       0                       0                       0
48                       6                       2                5.656854                       0                       0                       0
49                       6                       2                2.828427                       0                       0                       0
50                       6                       2                       0                       0                       0                       0
51                       8                       0                5.656854                       0                       0                       0
52                       8                       0                2.828427                       0                       0                       0
53                       8                       0                       0                       0                       0                       0
54                      10                       2                5.656854                       0                       0                       0
55                      10                       2                2.828427                       0                       0                       0
56                      10                       2                       0                       0                       0                       0
57                      12                       0                5.656854                       0                       0                       0
58                      12                       0                2.828427                       0                       0                       0
59                      12                       0                       0                       0                       0                       0
60                      14                       2                5.656854                       0                       0                       0
61                      14                       2                2.828427                       0                       0                       0
62                      14                       2                       0                       0                       0                       0
63                      16                       0                5.656854                       0                       0                       0
64                      16                       0                2.828427                       0                       0                       0
65                      16                       0                       0                       0                       0                       0
66                      18                       2                5.656854                       0                       0                       0
67                      18                       2                2.828427                       0                       0                       0
68                      18                       2                       0                       0                       0                       0
69                      20                       0                5.656854                       0                       0                       0
70                      20                       0                2.828427                       0                       0                       0
71                      20                       0                       0                       0                       0                       0
72                      22                       2                5.656854                       0                       0                       0
73                      22                       2                2.828427                       0                       0                       0
74                      22                       2                       0                       0                       0                       0
75                      24                       0                5.656854                       0                       0                       0
76                      24                       0                2.828427                       0                       0                       0
77                      24                       0                       0                       0                       0                       0
78                      26                       2                5.656854                       0                       0                       0
79                      26                       2                2.828427                       0                       0                       0
80                      26                       2                       0                       0                       0                       0
81                      28                       0                5.656854                       0                       0                       0
82                      28                       0                2.828427                       0                       0                       0
83                      28                       0                       0                       0                       0                       0
84                      30                       2                5.656854                       0                       0                       0
85                      30                       2                2.828427                       0                       0                       0
86                      30                       2                       0                       0                       0                       0
87                       0                       4                5.656854                       0                       0                       0
88                       0                       4                2.828427                       0                       0                       0
89                       0                       4                       0                       0                       0                       0
90                       2                       6                5.656854                       0                       0                       0
91                       2                       6                2.828427                       0                       0                       0
92                       2                       6                       0                       0                       0                       0
93                       4                       4                5.656854                       0                       0                       0
94                       4                       4                2.828427                       0                       0                       0
95                       4                       4                       0                       0                       0                       0
96                       6                       6                5.656854                       0                       0                       0
97                       6                       6                2.828427                       0                       0                       0
98                       6                       6                       0                       0                       0                       0
99                       8                       4                5.656854                       0                       0                       0
100                       8                       4                2.828427                       0                       0                       0
101                       8                       4                       0                       0                       0                       0
102                      10                       6                5.656854                       0                       0                       0
103                      10                       6                2.828427                       0                       0                       0
104                      10                       6                       0                       0                       0                       0
105                      12                       4                5.656854                       0                       0                       0
106                      12                       4                2.828427                       0                       0                       0
107                      12                       4                       0                       0                       0                       0
108                      14                       6                5.656854                       0                       0                       0
109                      14                       6                2.828427                       0                       0                       0
110                      14                       6                       0                       0                       0                       0
111                      16                       4                5.656854                       0                       0                       0
112                      16                       4                2.828427                       0                       0                       0
113                      16                       4                       0                       0                       0                       0
114                      18                       6                5.656854                       0                       0                       0
115                      18                       6                2.828427                       0                       0                       0
116                      18                       6                       0                       0                       0                       0
117                      20                       4                5.656854                       0                       0                       0
118                      20                       4                2.828427                       0                       0                       0
119                      20                       4                       0                       0                       0                       0
120                      22                       6                5.656854                       0                       0                       0
121                      22                       6                2.828427                       0                       0                       0
122                      22                       6                       0                       0                       0                       0
123                      24                       4                5.656854                       0                       0                       0
124                      24                       4                2.828427                       0                       0                       0
125                      24                       4                       0                       0                       0                       0
126                      26                       6                5.656854                       0                       0                       0
127                      26                       6                2.828427                       0                       0                       0
128                      26                       6                       0                       0                       0                       0
129                      28                       4                5.656854                       0                       0                       0
130                      28                       4                2.828427                       0                       0                       0
131                      28                       4                       0                       0                       0                       0
132                      30                       6                5.656854                       0                       0                       0
133                      30                       6                2.828427                       0                       0                       0
134                      30                       6                       0                       0                       0                       0
135                       0                       8                5.656854                       0                       0                       0
136                       0                       8                2.828427                       0                       0                       0
137                       0                       8                       0                       0                       0                       0
138                       2                      10                5.656854                       0                       0                       0
139                       2                      10                2.828427                       0                       0                       0
140                       2                      10                       0                       0                       0                       0
141                       4                       8                5.656854                       0                       0                       0
142                       4                       8                2.828427                       0                       0                       0
143                       4                       8                       0                       0                       0                       0
144                       6                      10                5.656854                       0                       0                       0
145                       6                      10                2.828427                       0                       0                       0
146                       6                      10                       0                       0                       0                       0
147                       8                       8                5.656854                       0                       0                       0
148                       8                       8                2.828427                       0                       0                       0
149                       8                       8                       0                       0                       0                       0
150                      10                      10                5.656854                       0                       0                       0
151                      10                      10                2.828427                       0                       0                       0
152                      10                      10                       0                       0                       0                       0
153                      12                       8                5.656854                       0                       0                       0
154                      12                       8                2.828427                       0                       0                       0
155                      12                       8                       0                       0                       0                       0
156                      14                      10                5.656854                       0                       0                       0
157                      14                      10                2.828427                       0                       0                       0
158                      14                      10                       0                       0                       0                       0
159                      16                       8                5.656854                       0                       0                       0
160                      16                       8                2.828427                       0                       0                       0
161                      16                       8                       0                       0                       0                       0
162                      18                      10                5.656854                       0                       0                       0
163                      18                      10                2.828427                       0                       0                       0
164                      18                      10                       0                       0                       0                       0
165                      20                       8                5.656854                       0                       0                       0
166                      20                       8                2.828427                       0                       0                       0
167                      20                       8                       0                       0                       0                       0
168                      22                      10                5.656854                       0                       0                       0
169                      22                      10                2.828427                       0                       0                       0
170                      22                      10                       0                       0                       0                       0
171                      24                       8                5.656854                       0                       0                       0
172                      24                       8                2.828427                       0                       0                       0
173                      24                       8                       0                       0                       0                       0
174                      26                      10                5.656854                       0                       0                       0
175                      26                      10                2.828427                       0                       0                       0
176                      26                      10                       0                       0                       0                       0
177                      28                       8                5.656854                       0                       0                       0
178                      28                       8                2.828427                       0                       0                       0
179                      28                       8                       0                       0                       0                       0
180                      30                      10                5.656854                       0                       0                       0
181                      30                      10                2.828427                       0                       0                       0
182                      30                      10                       0                       0                       0                       0
183                       0                      12                5.656854                       0                       0                       0
184                       0                      12                2.828427                       0                       0                       0
185                       0                      12                       0                       0                       0                       0
186                       2                      14                5.656854                       0                       0                       0
187                       2                      14                2.828427                       0                       0                       0
188                       2                      14                       0                       0                       0                       0
189                       4                      12                5.656854                       0                       0                       0
190                       4                      12                2.828427                       0                       0                       0
191                       4                      12                       0                       0                       0                       0
192                       6                      14                5.656854                       0                       0                       0
193                       6                      14                2.828427                       0                       0                       0
194                       6                      14                       0                       0                       0                       0
195                       8                      12                5.656854                       0                       0                       0
196                       8                      12                2.828427                       0                       0                       0
197                       8                      12                       0                       0                       0                       0
198                      10                      14                5.656854                       0                       0                       0
199                      10                      14                2.828427                       0                       0                       0
200                      10                      14                       0                       0                       0                       0
201                      12                      12                5.656854                       0                       0                       0