ITEM: TIMESTEP
0
ITEM: NUMBER OF ATOMS
422
ITEM: BOX BOUNDS ff ff ff
0.0000000000000000e+00 2.3200000000000000e+02
0.0000000000000000e+00 2.3200000000000000e+02
0.0000000000000000e+00 2.3200000000000000e+02
ITEM: ATOMS id xu yu zu fx fy fz
1        113.113410163222        115.950998785061        108.624331969383       0.350429280162484       0.763117799876149     0.00484426864531147
2        118.843058816826        116.004800218389        108.672427976754      -0.924407547288946      -0.595092554444635     0.00827924681270219
3        117.424265052848        116.009715171696        108.678774058931       -2.24573727443278      -0.882047733471487     -0.0163324469405702
4         114.55651479832        115.970394702307        108.642296759371       -1.07014841531312      -0.766093045704493     -0.0216185758129202
5        116.719245582163        114.767895264558        108.675024414394       0.971401626099821       -1.10318919490817      0.0360323349732636
6        115.241006717289        114.714472335133        108.623033726421       0.318571272615237        1.58707510873068    -0.00912576607341011
7        115.264061636679        117.214741977039        108.648573771651       0.742395141800982      -0.597043749936993      0.0196210379250676
8        116.658855343338        117.184719748499        108.617119301917        2.42381211470599         1.1807967175757      0.0171179715856024
9        114.507019674216        113.537708994634        108.646116753459      -0.124348474084776      -0.375309561553666      0.0350091482378628
10        117.482912297215         113.57376021837        108.679212814484     -0.0698590954270997      -0.418941571514699    -0.00134393649785407
11        114.550515743705        118.458997844825        108.694506192932       -1.23751783177415       0.113285215309903       0.016549576382226
12        117.490599488394        118.459240191918        108.691793377739      -0.850304630926348      -0.376595940589586     -0.0062584807748192
13        113.135467288151        113.570600615812        108.665010027915      -0.379354596537602      -0.466915679579717     0.00203615110174052
14        113.151604905404        118.433710859564         108.68601009729      -0.266533892144323       0.144974379790021      0.0155660526156324
15        118.888878294998        113.606102362402         108.69476406883       -1.00096642799244      0.0458489052322048      0.0771127048334079
16        118.827298040116          118.3914947392         108.63804626862         1.6488310656194        1.84636800340029     -0.0346591361771347
17        112.420001863972        117.187525969473        108.650060025833      -0.122113067069097       0.822564094262405      -0.113549426898734
18        112.425805693903        114.767856450227        108.653430635163       0.505263629705487       0.403822683012818     -0.0154947500131527
19        119.511159073164        114.742964988744        108.621391876472         1.5812789019365       0.895395356083979     -0.0530500202881981
20        119.575524408807        117.232803676739        108.688190433779       -1.80099665334115       -1.02496959743407      0.0568254831270554
21        120.939559848718        114.808859911917        108.641278826094       0.597508440340067       0.254673220327212      0.0723448792060005
22        120.989167824777        117.194664692102        108.693230462526       -2.99526130120303      -0.372094275613464       0.147372019969053
23        111.011845275554        114.805678431885        108.648073602393       0.345925262942214       0.419406656386294      0.0226011741015829
24        111.051699457882         117.18172941701        108.690271444737       -2.91740801627971       -2.63119221056529      0.0321964782445695
25        121.564832086163        115.970102703542        108.634959625424        2.50242713336973       0.856556654966558      -0.199072577257716
26        110.393598671056        115.987658075249        108.663762096584     -0.0602541819714077      -0.639483242858887       0.100237571798193
27        121.565759567525        118.142485662628        108.613417521701       0.819152534279191      -0.505446694169856      -0.084652799789881
28        121.625347246177        113.809866529171        108.668598959477      -0.894652450350747      -0.614305535331829     -0.0053363291561939
29        110.322806037684        118.137616774253        108.619845286957         2.3617171853327        1.79847875817233     -0.0326158578382643
30        110.342835606701         113.76543953317         108.63546861644       0.275842914889702        -0.1773895619599    -0.00111500077078406
31         112.59818378977        112.613771767621        108.655170967527      -0.143773238962923      0.0806983879166442     0.00329739233361478
32        112.603704446963        119.361084267573        108.667454946364       0.039705467392077      0.0235235654515507     0.00325975653967085
33        119.391191120102        112.633141321781         108.66773158715       0.548400733230015       0.283617374366013     -0.0177539786955854
34        119.420840374186        119.404582427433        108.704144167044     -0.0405092186309148      0.0258339927902488     -0.0321971485762537
35        114.959856049725        112.566530040737        108.654423476858        0.48799065258383       0.227458572634876    -0.00926234907275328
36        114.975868172037        119.422165209496        108.677297063355       0.846569089449281      -0.374222555876383     -0.0202645342450266
37         116.96897118853        112.522004174248        108.607833264509      -0.260633732081485       0.127366031523897   -0.000106532534422449
38        117.006814641586        119.399470674639        108.652538184055      0.0375575993573201      0.0194712277033534     0.00350639898111554
39                     100                     100              105.656854                       0                       0                       0
40                     100                     100              102.828427                       0                       0                       0
41                     100                     100                     100                       0                       0                       0
42                     102                     102              105.656854                       0                       0                       0
43                     102                     102              102.828427                       0                       0                       0
44                     102                     102                     100                       0                       0                       0
45                     104                     100              105.656854                       0                       0                       0
46                     104                     100              102.828427                       0                       0                       0
47                     104                     100                     100                       0                       0                       0
48                     106                     102              105.656854                       0                       0                       0
49                     106                     102              102.828427                       0                       0                       0
50                     106                     102                     100                       0                       0                       0
51                     108                     100              105.656854                       0                       0                       0
52                     108                     100              102.828427                       0                       0                       0
53                     108                     100                     100                       0                       0                       0
54                     110                     102              105.656854                       0                       0                       0
55                     110                     102              102.828427                       0                       0                       0
56                     110                     102                     100                       0                       0                       0
57                     112                     100              105.656854                       0                       0                       0
58                     112                     100              102.828427                       0                       0                       0
59                     112                     100                     100                       0                       0                       0
60                     114                     102              105.656854                       0                       0                       0
61                     114                     102              102.828427                       0                       0                       0
62                     114                     102                     100                       0                       0                       0
63                     116                     100              105.656854                       0                       0                       0
64                     116                     100              102.828427                       0                       0                       0
65                     116                     100                     100                       0                       0                       0
66                     118                     102              105.656854                       0                       0                       0
67                     118                     102              102.828427                       0                       0                       0
68                     118                     102                     100                       0                       0                       0
69                     120                     100              105.656854                       0                       0                       0
70                     120                     100              102.828427                       0                       0                       0
71                     120                     100                     100                       0                       0                       0
72                     122                     102              105.656854                       0                       0                       0
73                     122                     102              102.828427                       0                       0                       0
74                     122                     102                     100                       0                       0                       0
75                     124                     100              105.656854                       0                       0                       0
76                     124                     100              102.828427                       0                       0                       0
77                     124                     100                     100                       0                       0                       0
78                     126                     102              105.656854                       0                       0                       0
79                     126                     102              102.828427                       0                       0                       0
80                     126                     102                     100                       0                       0                       0
81                     128                     100              105.656854                       0                       0                       0
82                     128                     100              102.828427                       0                       0                       0
83                     128                     100                     100                       0                       0                       0
84                     130                     102              105.656854                       0                       0                       0
85                     130                     102              102.828427                       0                       0                       0
86                     130                     102                     100                       0                       0                       0
87                     100                     104              105.656854                       0                       0                       0
88                     100                     104              102.828427                       0                       0                       0
89                     100                     104                     100                       0                       0                       0
90                     102                     106              105.656854                       0                       0                       0
91                     102                     106              102.828427                       0                       0                       0
92                     102                     106                     100                       0                       0                       0
93                     104                     104              105.656854                       0                       0                       0
94                     104                     104              102.828427                       0                       0                       0
95                     104                     104                     100                       0                       0                       0
96                     106                     106              105.656854                       0                       0                       0
97                     106                     106              102.828427                       0                       0                       0
98                     106                     106                     100                       0                       0                       0
99                     108                     104              105.656854                       0                       0                       0
100                     108                     104              102.828427                       0                       0                       0
101                     108                     104                     100                       0                       0                       0
102                     110                     106              105.656854                       0                       0                       0
103                     110                     106              102.828427                       0                       0                       0
104                     110                     106                     100                       0                       0                       0
105                     112                     104              105.656854                       0                       0                       0
106                     112                     104              102.828427                       0                       0                       0
107                     112                     104                     100                       0                       0                       0
108                     114                     106              105.656854                       0                       0                       0
109                     114                     106              102.828427                       0                       0                       0
110                     114                     106                     100                       0                       0                       0
111                     116                     104              105.656854                       0                       0                       0
112                     116                     104              102.828427                       0                       0                       0
113                     116                     104                     100                       0                       0                       0
114                     118                     106              105.656854                       0                       0                       0
115                     118                     106              102.828427                       0                       0                       0
116                     118                     106                     100                       0                       0                       0
117                     120                     104              105.656854                       0                       0                       0
118                     120                     104              102.828427                       0                       0                       0
119                     120                     104                     100                       0                       0                       0
120                     122                     106              105.656854                       0                       0                       0
121                     122                     106              102.828427                       0                       0                       0
122                     122                     106                     100                       0                       0                       0
123                     124                     104              105.656854                       0                       0                       0
124                     124                     104              102.828427                       0                       0                       0
125                     124                     104                     100                       0                       0                       0
126                     126                     106              105.656854                       0                       0                       0
127                     126                     106              102.828427                       0                       0                       0
128                     126                     106                     100                       0                       0                       0
129                     128                     104              105.656854                       0                       0                       0
130                     128                     104              102.828427                       0                       0                       0
131                     128                     104                     100                       0                       0                       0
132                     130                     106              105.656854                       0                       0                       0
133                     130                     106              102.828427                       0                       0                       0
134                     130                     106                     100                       0                       0                       0
135                     100                     108              105.656854                       0                       0                       0
136                     100                     108              102.828427                       0                       0                       0
137                     100                     108                     100                       0                       0                       0
138                     102                     110              105.656854                       0                       0                       0
139                     102                     110              102.828427                       0                       0                       0
140                     102                     110                     100                       0                       0                       0
141                     104                     108              105.656854                       0                       0                       0
142                     104                     108              102.828427                       0                       0                       0
143                     104                     108                     100                       0                       0                       0
144                     106                     110              105.656854                       0                       0                       0
145                     106                     110              102.828427                       0                       0                       0
146                     106                     110                     100                       0                       0                       0
147                     108                     108              105.656854                       0                       0                       0
148                     108                     108              102.828427                       0                       0                       0
149                     108                     108                     100                       0                       0                       0
150                     110                     110              105.656854                       0                       0                       0
151                     110                     110              102.828427                       0                       0                       0
152                     110                     110                     100                       0                       0                       0
153                     112                     108              105.656854                       0                       0                       0
154                     112                     108              102.828427                       0                       0                       0
155                     112                     108                     100                       0                       0                       0
156                     114                     110              105.656854                       0                       0                       0
157                     114                     110              102.828427                       0                       0                       0
158                     114                     110                     100                       0                       0                       0
159                     116                     108              105.656854                       0                       0                       0
160                     116                     108              102.828427                       0                       0                       0
161                     116                     108                     100                       0                       0                       0
162                     118                     110              105.656854                       0                       0                       0
163                     118                     110              102.828427                       0                       0                       0
164                     118                     110                     100                       0                       0                       0
165                     120                     108              105.656854                       0                       0                       0
166                     120                     108              102.828427                       0                       0                       0
167                     120                     108                     100                       0                       0                       0
168                     122                     110              105.656854                       0                       0                       0
169                     122                     110              102.828427                       0                       0                       0
170                     122                     110                     100                       0                       0                       0
171                     124                     108              105.656854                       0                       0                       0
172                     124                     108              102.828427                       0                       0                       0
173                     124                     108                     100                       0                       0                       0
174                     126                     110              105.656854                       0                       0                       0
175                     126                     110              102.828427                       0                       0                       0
176                     126                     110                     100                       0                       0                       0
177                     128                     108              105.656854                       0                       0                       0
178                     128                     108              102.828427                       0                       0                       0
179                     128                     108                     100                       0                       0                       0
180                     130                     110              105.656854                       0                       0                       0
181                     130                     110              102.828427                       0                       0                       0
182                     130                     110                     100                       0                       0                       0
183                     100                     112              105.656854                       0                       0                       0
184                     100                     112              102.828427                       0                       0                       0
185                     100                     112                     100                       0                       0                       0
186                     102                     114              105.656854                       0                       0                       0
187                     102                     114              102.828427                       0                       0                       0
188                     102                     114                     100                       0                       0                       0
189                     104                     112              105.656854                       0                       0                       0
190                     104                     112              102.828427                       0                       0                       0
191                     104                     112                     100                       0                       0                       0
192                     106                     114              105.656854                       0                       0                       0
193                     106                     114              102.828427                       0                       0                       0
194                     106                     114                     100                       0                       0                       0
195                     108                     112              105.656854                       0                       0                       0
196                     108                     112              102.828427                       0                       0                       0
197                     108                     112                     100                       0                       0                       0
198                     110                     114              105.656854                       0                       0                       0
199                     110                     114              102.828427                       0                       0                       0
200                     110                     114                     100                       0                       0                       0
201                     112                     112              105.656854                       0                       0                       0