ITEM: TIMESTEP
0
ITEM: NUMBER OF ATOMS
422
ITEM: BOX BOUNDS pp pp pp
0.0000000000000000e+00 3.2000000000000000e+01
0.0000000000000000e+00 3.2000000000000000e+01
0.0000000000000000e+00 3.2000000000000000e+01
ITEM: ATOMS id xu yu zu fx fy fz
1        13.1110525694498        15.9486411912885        8.62197037561121    -0.00666249771360252     0.00184517815180793      0.0110499512046387
2        18.8570996330046        16.0188410345679        8.68646479293349     0.00538533070026063   -0.000565445454476298     0.00488876999817479
3        17.3765879712712        15.9620380901192        8.63109297735423    -0.00606488043391861     0.00171236550484818      0.0154544391552178
4        14.6171724543349        16.0310523583217         8.7029504153859     0.00474451764408636    -0.00110305312374695     0.00747376690264401
5        16.7176885505929        14.7663382329874         8.6734633828237     -0.0222683254555365       0.013825035580997       0.036748600260576
6        15.2318553495571        14.7053209674016        8.61387835868973      0.0303725308965326      0.0178850322551747      0.0580438503161343
7        15.2817133837563        17.2323937241165        8.66622151872879      0.0228179801617193     -0.0141936426253505      0.0381555866880373
8        16.7485509798239        17.2744153849848        8.70681093840231     -0.0212395258385236     -0.0127119431976014      0.0345894822356955
9        14.5256740570926        13.5563633775104        8.66476713633525      0.0293549353658283     -0.0247656290974683       0.143245244057541
10        17.4242081069135        13.5150560280682        8.62050462418212     -0.0355473863122281     -0.0299298968273966       0.158808222747181
11         14.501373052752        18.4098551538721        8.64535950197911      0.0310666158266777      0.0253868011925557       0.160213299409108
12        17.4502186195023         18.418859323026        8.65140850884706     -0.0321290627277249      0.0244658121601451       0.150298317140424
13        13.0793780479817        13.5145113756436        8.60891678774597     -0.0425876813220182     -0.0225085908792137       0.115626256871905
14        13.1641855137686        18.4462914679292        8.69858670565491     -0.0316491448837073      0.0169009673607921      0.0922945185834745
15        18.8589052167094        13.5761292841134        8.66478699054131      0.0362403029290381     -0.0178947910971033       0.104381546849717
16        18.8225040765402        18.3867007756244        8.63324830504398       0.041146262053588      0.0193460992001193       0.126129548702148
17        12.4201841246773        17.1877082301783        8.65023828653833     -0.0145224856975055    -0.00929344038342073      0.0197916115453212
18        12.4352536825919        14.7773044389158        8.66287462385236     -0.0148967751305231     0.00907104988499639      0.0198553600597128
19        19.5559784910334        14.7877844066133         8.6662072943412      0.0148476418617028     0.00911953838452123      0.0195122135010545
20        19.5623593110406        17.2196385789719        8.67502133601232      0.0143221059477459    -0.00874588033456524      0.0182120705046703
21         20.941179163373        14.8104792265713        8.64289414074895     -0.0278883053863347      0.0214998086827581       0.060665772728575
22        20.9420116420076        17.1475085093326        8.64607027975685     -0.0263991060500611     -0.0214106710407181      0.0567807672663273
23        10.9726943607515         14.766527517083         8.6089186875904      0.0337686853890234      0.0267024725761762      0.0839201377392165
24        11.0519978960749        17.1820278552031         8.6905658829295      0.0235096737460681     -0.0184003304463629      0.0487462312367674
25        21.5376052404074        15.9428758577856        8.60772877966786    -0.00201033219364054     0.00126336732962232    9.61544641680174e-05
26        10.3992821067079        15.9933415109007        8.66944153223628     0.00142259076758252    0.000122723803554928    -0.00262118090285789
27         21.597508704223        18.1742347993253        8.64516265839896     -0.0119660182338664      0.0051707578219797      0.0710614096183979
28        21.6193829799832        13.8039022629777        8.66263069328302     -0.0106554542906449    -0.00548155654261225       0.066489096233533
29        10.3597360616213        18.1745467981901        8.65677131089378      0.0104525699060836     0.00506468898931154       0.069434421764183
30        10.3814575284343        13.8040614549036        8.67408653817385      0.0102230091224964    -0.00524297067248876      0.0632864393796864
31        12.6186924910564         12.634280468907        8.67567566881373    -0.00056497678143966   -0.000551912849673562    -0.00918169365275597
32        12.5761950882872        19.3335749088972        8.63994158768793    -0.00069705687670415    0.000616170011698691     -0.0090369721456875
33         19.407598613329        12.6495488150085        8.68413508037715    0.000540281006835501    -0.00049426023980663    -0.00925183379164436
34        19.3627577676948        19.3464998209414        8.64605756055242    0.000722701599766631    0.000707112881613674    -0.00889842678195536
35        14.9870974944333         12.593771485446        8.68166092156642    0.000769210191599786    -0.00128581757757239    -0.00793454905802856
36        14.9370122928042        19.3833093302631        8.63843718412224      0.0010500527161815      0.0017506471961988    -0.00709308763875089
37        17.0306502988473        12.5836832845651        8.66950837482578   -0.000805830954962111    -0.00137761706443981    -0.00781068441969095
38         16.972543265711        19.3651992987646           8.61826280818     -0.0011530363218286     0.00168735386906694    -0.00718469710513042
39                       0                       0                5.656854                       0                       0                       0
40                       0                       0                2.828427                       0                       0                       0
41                       0                       0                       0                       0                       0                       0
42                       2                       2                5.656854    5.33081999000983e-10    7.50768306748898e-10    1.91903657262937e-10
43                       2                       2                2.828427                       0                       0                       0
44                       2                       2                       0                       0                       0                       0
45                       4                       0                5.656854                       0                       0                       0
46                       4                       0                2.828427                       0                       0                       0
47                       4                       0                       0                       0                       0                       0
48                       6                       2                5.656854    1.78642879216007e-08     3.6076180847779e-08    9.28709971246184e-09
49                       6                       2                2.828427     6.2764381571272e-10    1.31441747272568e-09    6.59480608447189e-10
50                       6                       2                       0                       0                       0                       0
51                       8                       0                5.656854    6.71940745217674e-10    4.16644090694241e-11    4.70471196819447e-10
52                       8                       0                2.828427    3.81470238914321e-10   -1.16785248538621e-12    4.83689449516205e-10
53                       8                       0                       0                       0                       0                       0
54                      10                       2                5.656854    7.75481002918028e-08    3.00489518198281e-07    7.92246213974629e-08
55                      10                       2                2.828427    2.82374055412857e-09    1.09794065123236e-08    5.61745240644396e-09
56                      10                       2                       0    9.78121628703292e-10    4.19119708367564e-09     3.2478540367805e-09
57                      12                       0                5.656854    1.34812408820969e-09    2.05426278033403e-10    2.19667414240329e-09
58                      12                       0                2.828427    1.68123277961681e-09    2.22390695608763e-10    5.17658504963002e-09
59                      12                       0                       0                       0                       0                       0
60                      14                       2                5.656854    4.71433055427999e-08    7.37910836143613e-07    1.97659425355072e-07
61                      14                       2                2.828427    1.60951791952114e-09    2.56671206174258e-08    1.33207062651476e-08
62                      14                       2                       0     7.8530878793428e-10    1.09549983296907e-08    8.56578386675678e-09
63                      16                       0                5.656854   -2.90373484974456e-11    3.21091510995331e-10    3.26200879436461e-09
64                      16                       0                2.828427   -2.36897043125979e-10    1.35887396316715e-09    7.58854263564407e-09
65                      16                       0                       0                       0                       0                       0
66                      18                       2                5.656854   -4.96828351508106e-08    7.29109181746824e-07    1.95538785973788e-07
67                      18                       2                2.828427   -1.71148093328941e-09    2.53315955547869e-08     1.3156270516487e-08
68                      18                       2                       0   -8.05818779717282e-10      1.075899795141e-08    8.41872446392042e-09
69                      20                       0                5.656854   -1.34063213609178e-09    2.10192329200381e-10    2.14541136992794e-09
70                      20                       0                2.828427   -1.69075559981588e-09    2.06895595916757e-10    5.06691100442944e-09
71                      20                       0                       0                       0                       0                       0
72                      22                       2                5.656854    -7.5647575357245e-08    2.90797559254675e-07    7.69145979311144e-08
73                      22                       2                2.828427   -2.67253575576744e-09    1.04132974122859e-08    5.34707022193274e-09
74                      22                       2                       0   -9.30028781333897e-10    4.00418894268422e-09     3.1070036996404e-09
75                      24                       0                5.656854   -6.49048936237809e-10    3.78910676995073e-11    4.54532681470937e-10
76                      24                       0                2.828427   -3.77331408724418e-10    1.75476403285334e-12     4.7724308266323e-10
77                      24                       0                       0                       0                       0                       0
78                      26                       2                5.656854   -1.72772199694137e-08     3.4916664712533e-08     9.0095413210737e-09
79                      26                       2                2.828427   -5.97550029333647e-10    1.25740929928157e-09     6.3216392194584e-10
80                      26                       2                       0                       0                       0                       0
81                      28                       0                5.656854                       0                       0                       0
82                      28                       0                2.828427                       0                       0                       0
83                      28                       0                       0                       0                       0                       0
84                      30                       2                5.656854   -5.35488009394273e-10    7.54222285875772e-10     1.9205714499606e-10
85                      30                       2                2.828427                       0                       0                       0
86                      30                       2                       0                       0                       0                       0
87                       0                       4                5.656854   -7.48721976399913e-13    2.98809091035501e-10    9.17852427605219e-11
88                       0                       4                2.828427                       0                       0                       0
89                       0                       4                       0                       0                       0                       0
90                       2                       6                5.656854    9.95552278538178e-08    9.13196933171571e-08    3.39204570075561e-08
91                       2                       6                2.828427    3.73994978897616e-09     3.3894151166522e-09    2.44405505017073e-09
92                       2                       6                       0     1.0330406332621e-09    9.61874776557618e-10    1.06910806622428e-09
93                       4                       4                5.656854    1.11932050530342e-08    1.52692291898966e-08    4.64231631669042e-09
94                       4                       4                2.828427    1.36069475015174e-08    1.87650615986989e-08    1.10304586824395e-08
95                       4                       4                       0    1.41208453563663e-10    1.95938661822811e-10    1.78081650816355e-10
96                       6                       6                5.656854    3.31252082016193e-06    4.89551967383108e-06    1.86177211215462e-06
97                       6                       6                2.828427    9.19621648864795e-08    1.34022084861828e-07    9.83236614621478e-08
98                       6                       6                       0    3.59901512894516e-08    5.16003942999076e-08    5.62012425963178e-08
99                       8                       4                5.656854    1.29808407554265e-07     3.0451570349051e-07    9.50635053987266e-08
100                       8                       4                2.828427    1.32442169585608e-07    3.08390775349847e-07    1.86058007815481e-07
101                       8                       4                       0    1.80677992877792e-09    4.25686865890035e-09    3.80891959692538e-09
102                      10                       6                5.656854    2.17933537034908e-05    6.49921518448443e-05    2.60160560016998e-05
103                      10                       6                2.828427    4.55539491011261e-07    1.33674957604209e-06    1.02369136270931e-06
104                      10                       6                       0    1.38600235272895e-07    3.98335607475193e-07    4.46090184765539e-07
105                      12                       4                5.656854     2.5856463131354e-07    1.56779038089974e-06    5.05486494423418e-07
106                      12                       4                2.828427     2.3351896054996e-07    1.37746750913846e-06    8.54659961186934e-07
107                      12                       4                       0    2.92238136079001e-09    1.68018847582491e-08    1.53743248542366e-08
108                      14                       6                5.656854    1.16870485217668e-05    0.000182717683666169    7.57005609430898e-05
109                      14                       6                2.828427    2.41317702259446e-07     3.3283709432876e-06    2.62858420647851e-06
110                      14                       6                       0     7.2826666823056e-08    8.90347721907803e-07    1.02342522564893e-06
111                      16                       4                5.656854   -4.67317132289508e-09    2.33110784864651e-06    7.60455586382575e-07
112                      16                       4                2.828427   -5.14417109070775e-09    2.00274455306532e-06    1.25586413769609e-06
113                      16                       4                       0   -7.16159816510649e-11    2.38534430141744e-08    2.20375708245669e-08
114                      18                       6                5.656854   -1.26840916123032e-05    0.000180309290284094    7.48016811441392e-05
115                      18                       6                2.828427   -2.61134861818091e-07    3.27950422372247e-06    2.59184727028674e-06
116                      18                       6                       0   -7.85585857086338e-08    8.77150330291359e-07    1.00858415218733e-06
117                      20                       4                5.656854   -2.58406421942101e-07    1.52567249299871e-06    4.93156006352174e-07
118                      20                       4                2.828427   -2.34175997994037e-07    1.34011997808848e-06    8.32352724519743e-07
119                      20                       4                       0   -2.96367359525606e-09    1.64907357623839e-08    1.50712549664813e-08
120                      22                       6                5.656854   -2.10308138951644e-05    6.25760869874015e-05    2.51246683532532e-05
121                      22                       6                2.828427   -4.40208486697108e-07    1.28560282461546e-06    9.85394567684428e-07
122                      22                       6                       0    -1.3452727877195e-07     3.8383814400527e-07    4.29811109768975e-07
123                      24                       4                5.656854   -1.25230508537502e-07    2.94038546375562e-07     9.2043691116151e-08
124                      24                       4                2.828427   -1.28150320408885e-07    2.97852982909876e-07    1.79845052944125e-07
125                      24                       4                       0   -1.74427626133377e-09    4.10330734652934e-09    3.67248061897683e-09
126                      26                       6                5.656854   -3.20387462707872e-06    4.74284250231345e-06    1.80678675271975e-06
127                      26                       6                2.828427   -8.86538548194144e-08    1.29487434744637e-07    9.50604472940515e-08
128                      26                       6                       0   -3.45168862893959e-08    4.98876331517043e-08      5.423421717221e-08
129                      28                       4                5.656854   -1.08442712924065e-08    1.48005236514453e-08    4.50697470095142e-09
130                      28                       4                2.828427   -1.31149079250739e-08    1.81260552108574e-08    1.06642342319312e-08
131                      28                       4                       0   -1.42333813817736e-10     1.9789427108444e-10    1.79616349282414e-10
132                      30                       6                5.656854   -9.65631916243075e-08       8.85336755278e-08    3.29114445537134e-08
133                      30                       6                2.828427   -3.61680109223886e-09    3.27728142252814e-09    2.36556370547832e-09
134                      30                       6                       0   -1.04515403271692e-09    9.73231434105489e-10    1.08032420302675e-09
135                       0                       8                5.656854    3.59527473540951e-10    1.27943491597431e-08    6.08222014882992e-09
136                       0                       8                2.828427    3.77278227892422e-10    1.45537731560788e-08    1.36000627607967e-08
137                       0                       8                       0   -1.50086641235899e-12    1.45597634920548e-10    2.17452053436644e-10
138                       2                      10                5.656854    3.25811053698844e-06    1.65372470605826e-06    1.12505033480264e-06
139                       2                      10                2.828427    9.25939786537532e-08    4.75129192196758e-08    6.16800809445711e-08
140                       2                      10                       0    3.75136356860713e-08    1.93100725180192e-08    3.66857984496296e-08
141                       4                       8                5.656854    1.03137315711522e-06     9.1658585507728e-07    4.48432710175414e-07
142                       4                       8                2.828427    8.64930982512218e-07    7.64964433651243e-07    7.18834013229172e-07
143                       4                       8                       0    1.01485660972902e-08    8.92456214791036e-09    1.23304392985479e-08
144                       6                      10                5.656854    0.000282481445631546    0.000241375232425013    0.000173699706094654
145                       6                      10                2.828427    4.06454621922205e-06    3.44084537070034e-06    4.67159822274461e-06
146                       6                      10                       0    9.00677730112323e-07     7.5438123560189e-07    1.47428629932864e-06
147                       8                       8                5.656854    2.35902546189144e-05    3.95891586608002e-05    2.03094051526207e-05
148                       8                       8                2.828427     1.2403293811147e-05    2.01224198386081e-05     1.9716383786892e-05
149                       8                       8                       0    9.44211487246302e-08    1.48444588757386e-07    2.11828469301777e-07
150                      10                      10                5.656854     0.00292480647977525     0.00584938327139673     0.00461090048654491
151                      10                      10                2.828427    2.49204324886343e-05    4.76886252188436e-05    6.97776772659163e-05
152                      10                      10                       0    3.59735267763875e-06    6.50091741566865e-06     1.3476803795681e-05
153                      12                       8                5.656854    6.22280078182482e-05    0.000292525436957555    0.000163259762751982
154                      12                       8                2.828427    2.37553577271711e-05    0.000106307628303784    0.000111129736794813
155                      12                       8                       0    1.43585357086472e-07    6.03400305015688e-07    9.04171575997685e-07
156                      14                      10                5.656854     0.00096345087255482      0.0152660576897158       0.013301947172392
157                      14                      10                2.828427    9.01219701794459e-06    0.000112792496276437    0.000179244532189229
158                      14                      10                       0     1.4694940816041e-06    1.35355739513723e-05     2.9767473361142e-05
159                      16                       8                5.656854   -5.30193971340145e-07    0.000423040795244452    0.000242311954815105
160                      16                       8                2.828427     -4.712324097721e-07    0.000148809916870382    0.000159256294093862
161                      16                       8                       0   -3.73845085874208e-09    8.24049848767527e-07    1.25984886172957e-06
162                      18                      10                5.656854    -0.00110411967584465      0.0150326478105419      0.0131189604483948
163                      18                      10                2.828427    -1.0447283620495e-05     0.00011097493786787    0.000176417404451888
164                      18                      10                       0   -1.62150209640339e-06    1.33417255067529e-05    2.93088667613741e-05
165                      20                       8                5.656854   -6.16789565614481e-05    0.000281695461143264    0.000157659305764661
166                      20                       8                2.828427   -2.36768868504006e-05    0.000102646430376608    0.000107350250256071
167                      20                       8                       0   -1.43637389896128e-07     5.8563122386473e-07    8.76857213638927e-07
168                      22                      10                5.656854    -0.00279439263778272     0.00562982577946675     0.00444351521320297
169                      22                      10                2.828427   -2.38732111002037e-05    4.59053543282666e-05     6.6998263108861e-05
170                      22                      10                       0   -3.48158306030564e-06     6.2991758741084e-06    1.29975843883913e-05
171                      24                       8                5.656854    -2.2725895759989e-05    3.82915245054896e-05    1.96810717879225e-05
172                      24                       8                2.828427   -1.19119149859069e-05     1.9400257112553e-05    1.90092222596228e-05
173                      24                       8                       0   -9.08189372829829e-08    1.43173535107724e-07    2.04018660098594e-07
174                      26                      10                5.656854   -0.000273843530766758     0.00023377716958336    0.000168496126425102
175                      26                      10                2.828427   -3.93070958335781e-06    3.33283542893212e-06    4.52197735328775e-06
176                      26                      10                       0   -8.71345263316424e-07    7.32710460725846e-07    1.42699187106163e-06
177                      28                       8                5.656854   -1.00002799427388e-06    8.88008369941622e-07    4.34957783335116e-07
178                      28                       8                2.828427   -8.37042219464667e-07    7.40516445082025e-07     6.9618392790734e-07
179                      28                       8                       0   -9.81313560584274e-09     8.6425254309661e-09    1.19307777337393e-08
180                      30                      10                5.656854   -3.14812023507714e-06    1.59393327060527e-06    1.08544362471719e-06
181                      30                      10                2.828427   -8.93956808139745e-08    4.59904660911797e-08    5.96987730238169e-08
182                      30                      10                       0   -3.64019579515735e-08    1.87611309323311e-08    3.55559620870255e-08
183                       0                      12                5.656854    4.55391973952228e-09    6.07150774694093e-08    6.41589094853439e-08
184                       0                      12                2.828427    4.46369989369107e-09    6.83090288329346e-08    1.36952282781235e-07
185                       0                      12                       0    4.99893160391881e-11    1.02076984619682e-09    2.91670252997206e-09
186                       2                      14                5.656854    1.90470250654436e-05    2.69682702008313e-06    6.58640884381781e-06
187                       2                      14                2.828427    4.61930053511438e-07    6.91581794173239e-08    3.08928083889158e-07
188                       2                      14                       0    1.60833372903181e-07    2.51768748182228e-08    1.57080224508816e-07
189                       4                      12                5.656854    2.36624658559981e-05    8.99477914634227e-06    1.05327453523628e-05
190                       4                      12                2.828427     1.3129571558553e-05    5.17367722244155e-06    1.11549469997835e-05
191                       4                      12                       0    1.04498498139904e-07    4.24189635989303e-08    1.29129096241151e-07
192                       6                      14                5.656854      0.0031828632362929    0.000647451801081048     0.00199835553490597
193                       6                      14                2.828427    2.98384204398013e-05    6.83734284199681e-06    3.51966093740154e-05
194                       6                      14                       0    4.56972735079122e-06    1.13227665014019e-06    7.67737357967117e-06
195                       8                      12                5.656854     0.00134518808710977     0.00105424205515287     0.00136755503929718
196                       8                      12                2.828427    0.000293549193106425    0.000226549162306217    0.000529173629562721
197                       8                      12                       0    1.16120738203011e-06    8.80291056382866e-07     2.8431583194844e-06
198                      10                      14                5.656854     -0.0261054125445017     -0.0137974154822718      -0.154755483461008
199                      10                      14                2.828427     0.00018570105724106    0.000109271083798399    0.000649099264869579
200                      10                      14                       0     1.7424030738741e-05     1.0005255374473e-05    7.48060955224303e-05
201                      12                      12                5.656854      0.0016403867470416     0.00539761537791534      0.0075117204405721