ITEM: TIMESTEP
0
ITEM: NUMBER OF ATOMS
422
ITEM: BOX BOUNDS ff ff ff
0.0000000000000000e+00 2.3200000000000000e+02
0.0000000000000000e+00 2.3200000000000000e+02
0.0000000000000000e+00 2.3200000000000000e+02
ITEM: ATOMS id xu yu zu fx fy fz
1        113.145932193839        115.483520815677              108.656854    -0.00887191997336181       0.015815863342147      0.0219580932229156
2        118.827484840071        115.489226241634              108.656854     0.00596972499441853      0.0161422237246406      0.0229349508517188
3        117.402344993917        115.487795112765              108.656854    -0.00475799840697569      0.0219046924067749      0.0310739634545435
4        114.571072038949        115.484951942936              108.656854      0.0105125227120983      0.0224444260851488      0.0323780117943681
5        116.701075167769        114.249724850164              108.656854     -0.0260656961509686      0.0103193582117923      0.0573184214343688
6        115.274826990867        114.248292608712              108.656854      0.0345847408319962      0.0105389236595606      0.0602084148752408
7        115.272341865028        116.723022205388              108.656854      0.0137214809567234    -0.00678685631955267      0.0181867222024637
8        116.698590041422        116.724454446583              108.656854    -0.00577215134959136    -0.00627381853041445      0.0169736346175789
9        114.517756920757        113.048446241175              108.656854      0.0198876300735694     -0.0486181152954943      0.0939388579028416
10        117.460553482731        113.051401403886              108.656854     -0.0389636185528768     -0.0482135433098243      0.0937222863393286
11        114.512863550773        117.921345651893              108.656854      0.0342801608651943     -0.0179328787664906       0.182947889097141
12        117.455660110655        117.924300814179              108.656854     -0.0537818024639295     -0.0173113112839586       0.179863744746061
13        113.127311260236        113.062444587898              108.656854     -0.0159522222650531     -0.0395215245112753      0.0638294515467961
14        113.122448808114        117.904554762274              108.656854     -0.0336550163165709     -0.0131242183011141       0.126192854156074
15        118.850968226168        113.068192293572              108.656854    0.000135828812496741     -0.0403163786062496      0.0682112546486083
16        118.846105771496         117.91030247058              108.656854       0.017961260494687     -0.0124921493121024       0.132993760959942
17        112.426795838139         116.69431994364              108.656854    -0.00112569442005651     0.00385231560734095     0.00996662851544043
18         112.42922905874        114.271279815063              108.656854     -0.0148585412024606     0.00484179315563779      0.0333186211265789
19        119.546621196692        114.278427112272              108.656854      0.0257420405874464      0.0050688201937136      0.0335274377137965
20        119.544187975028         116.70146724296              108.656854      0.0114039699799667     0.00317206162965769     0.00934161648222351
21        120.955135022624        114.324435085822              108.656854       0.120847300728586        0.13519639091744      0.0422632060108733
22        120.952791362251        116.658288229576              108.656854       0.143407070255887     -0.0228702261297036      0.0288321673364513
23        111.020625673161        114.314458829493              108.656854    -0.00221121406251107       0.136166738753286      0.0673859381354266
24        111.018282013145        116.648311972274              108.656854     -0.0260398992617254     -0.0196327785023067      0.0513210272500611
25        121.586726460739        115.491997078118              108.656854     -0.0590221899883195    -0.00170536643318561      0.0181673859953076
26        110.386690574472        115.480749978664              108.656854    -0.00742956177903487    -0.00249386487633137     0.00500894035642516
27        121.609196045824        117.685922140926              108.656854      -0.174617885563448     -0.0970474439365211        0.17639546945306
28          121.6136022867        113.298121569695              108.656854      -0.177653407599151      -0.118742407354479       0.126706879009834
29        110.359814750727        117.674625487296              108.656854      0.0258946635130891      -0.106072609807304       0.145519477789759
30         110.36422099026         113.28682491673              108.656854      0.0272601210466388      -0.117739990479473      0.0936270286639451
31        112.599866822243        112.115454800093              108.656854     -0.0155903611005911      0.0167886743487656      0.0186808708748641
32        112.593103500599        118.850483321209              108.656854     -0.0168596255842543      0.0139923872298851    -0.00274998154668452
33        119.380313532952        112.122263734631              108.656854      0.0579072313361399      0.0177941719033194       0.012600133683525
34        119.373550207142        118.857292260389              108.656854      0.0578220501000729      0.0121694508574383    -0.00851520414677118
35        114.962286572867         112.06896056388              108.656854     0.00395739741148743     0.00918471134807547     0.00147940345167268
36        114.955425108682        118.901722146141              108.656854     0.00621756711194732      0.0118219274467247    -0.00753428881366202
37        117.017991924022        112.071024909739              108.656854      0.0227101887326251     0.00937002917285784     0.00069222866716065
38        117.011130457531        118.903786490585              108.656854      0.0196808256885647      0.0113076568466885    -0.00837942021334818
39                     100                     100              105.656854       0.212199098158165       0.214148305428349      -0.975642305434761
40                     100                     100              102.828427       0.431999910139117         0.4302971891468   -0.000434577380871298
41                     100                     100                     100       0.212141067501412       0.213529351924162       0.976375173438867
42                     102                     102              105.656854      -0.344547177256342       -0.34790913722597      -0.278066536507057
43                     102                     102              102.828427     -0.0508871670021815     -0.0480843140671897    0.000809431018969292
44                     102                     102                     100      -0.344464501682384      -0.346612811205729       0.276747560741111
45                     104                     100              105.656854      0.0956638999420689       0.960340806301723      -0.808885450710295
46                     104                     100              102.828427     -0.0636484062023858       0.726505409894778   -0.000348057530719642
47                     104                     100                     100      0.0960525228852722       0.959563792975487       0.809434617827193
48                     106                     102              105.656854      -0.148796116348166       -0.51540242292481      -0.381575535890972
49                     106                     102              102.828427       0.141941705562737      0.0668411980609557    0.000512468562144933
50                     106                     102                     100      -0.149912772893577      -0.513914242200432       0.380811401923359
51                     108                     100              105.656854       0.109137402535878        1.06019729137799      -0.801896806801099
52                     108                     100              102.828427      -0.111213883573909       0.639808770285791    0.000244918605048634
53                     108                     100                     100        0.11036333741228         1.0600622987257       0.801431708419934
54                     110                     102              105.656854      -0.142243121416909      -0.581794667829136      -0.373773566344138
55                     110                     102              102.828427       0.147286537913751       0.134732382752169    -0.00104291251091555
56                     110                     102                     100      -0.145127094911645      -0.582552557575093       0.375564423647524
57                     112                     100              105.656854       0.131200407977108        1.10799843344844      -0.810800923564505
58                     112                     100              102.828427      -0.135111234774121       0.589746356840478     0.00132832399922063
59                     112                     100                     100       0.132607967619613        1.10967976243187       0.808554626572953
60                     114                     102              105.656854      -0.163244085359837      -0.617623124643856      -0.360969457228299
61                     114                     102              102.828427       0.168369042940533       0.174130460839732    -0.00308684998527061
62                     114                     102                     100       -0.16505869304649      -0.622336584468162        0.36605446560728
63                     116                     100              105.656854       0.166589788942392        1.14314416648747      -0.821442616768287
64                     116                     100              102.828427      -0.170772719116175       0.552787114065263     0.00193650682797378
65                     116                     100                     100       0.166587980624195        1.14597722362801       0.818209117349148
66                     118                     102              105.656854      -0.210057687280709      -0.649826460158604      -0.347537933848463
67                     118                     102              102.828427       0.214723094745903       0.207379239796554    -0.00308345672547961
68                     118                     102                     100       -0.20823683495114      -0.654530483375836       0.352617450640615
69                     120                     100              105.656854       0.223678681101686        1.18208387097624       -0.83536838681874
70                     120                     100              102.828427      -0.228976978863396       0.513237390084393     0.00132697765459381
71                     120                     100                     100        0.22227240550123        1.18376103782937       0.833124271533255
72                     122                     102              105.656854      -0.289606255426683      -0.687967845012391      -0.330244902789751
73                     122                     102              102.828427       0.294145573573379       0.244299053175226    -0.00104148825177229
74                     122                     102                     100      -0.286732234570584       -0.68872093248412       0.332033338602992
75                     124                     100              105.656854       0.326738274438691        1.23683954211524      -0.852095137317691
76                     124                     100              102.828427       -0.32329902636864       0.459424687220722    0.000246386984335109
77                     124                     100                     100       0.325517002663005        1.23670646028182       0.851627753592824
78                     126                     102              105.656854      -0.461962316515486      -0.728196660435851      -0.332143005760654
79                     126                     102              102.828427       0.397469863986743       0.282015434852962    0.000506684803807497
80                     126                     102                     100      -0.460851608114941      -0.726719016680922       0.331387929562574
81                     128                     100              105.656854       0.708365761596202        1.34098496242058      -0.754686008571577
82                     128                     100              102.828427      -0.281021448981851       0.395888077349306   -0.000344196180157744
83                     128                     100                     100       0.707978412396773        1.34021383327734       0.755228947491922
84                     130                     102              105.656854       -1.34053918592728       -0.70907862207428      -0.755506693011867
85                     130                     102              102.828427      -0.395874324135968       0.281256578391796    0.000802559551567747
86                     130                     102                     100       -1.34062004680912      -0.707792183590543       0.754198745194875
87                     100                     104              105.656854       0.959308373140479        0.10031063926612      -0.808317331487804
88                     100                     104              102.828427        0.72754166696653     -0.0674170039805232    -0.00119123372061076
89                     100                     104                     100       0.958595022168985      0.0988351787767183       0.810282429082608
90                     102                     106              105.656854      -0.514281847276438      -0.157636442347395      -0.383081118594722
91                     102                     106              102.828427      0.0654623843347924       0.148498823482409     0.00249733850027433
92                     102                     106                     100      -0.512530781340745        -0.1542709475859       0.379076058292419
93                     104                     104              105.656854       0.247271234733974       0.253603489208715      -0.388260010112123
94                     104                     104              102.828427      -0.179936370124008      -0.184825813957361    -0.00160267221191718
95                     104                     104                     100       0.247238836732572       0.250656432460142       0.390795132256259
96                     106                     106              105.656854      -0.233192444680463      -0.246660225381451      -0.505475384394016
97                     106                     106              102.828427       0.225034845839306        0.23409555491764     0.00331184620183045
98                     106                     106                     100      -0.233864971119434      -0.239368192080407       0.500147572548745
99                     108                     104              105.656854       0.172092860587252       0.339474962431732      -0.374972225828317
100                     108                     104              102.828427      -0.176417843168593      -0.269138834814005   -0.000501655939503314
101                     108                     104                     100       0.175613703508248       0.336844301955849       0.375673456374659
102                     110                     106              105.656854      -0.178284155332149      -0.294077858515896      -0.490303448405624
103                     110                     106              102.828427       0.190234974622476       0.285853493194285    -0.00100097459684858
104                     110                     106                     100      -0.189959980819047      -0.291794478812832        0.49199889211306
105                     112                     104              105.656854        0.16489715775441        0.37825198967413      -0.391431316027259
106                     112                     104              102.828427      -0.172898309030364      -0.313881557258382     0.00358444774876705
107                     112                     104                     100       0.171097798973561       0.383144617513573       0.385476281271111
108                     114                     106              105.656854      -0.185343651261316      -0.303215007511574      -0.464283894451008
109                     114                     106              102.828427       0.196101597236359       0.310247857588936     -0.0103030337879282
110                     114                     106                     100      -0.194505914016801      -0.321796251216417       0.482436984674073
111                     116                     104              105.656854       0.198206252000887       0.402506659769827      -0.407558373416675
112                     116                     104              102.828427      -0.203407270102489      -0.342819304627063     0.00636955990554077
113                     116                     104                     100       0.198191516064524       0.413366753633669       0.397068027278558
114                     118                     106              105.656854       -0.24391875456286      -0.325489422351625      -0.448409032724421
115                     118                     106              102.828427       0.244741365338906       0.333171366824031     -0.0102777230470612
116                     118                     106                     100      -0.234705442271946      -0.343996612958368       0.466513333765853
117                     120                     104              105.656854       0.262513922018034        0.43494050256516      -0.422147133778799
118                     120                     104              102.828427      -0.266094619550483      -0.372398511465148     0.00357308983936417
119                     120                     104                     100       0.256321645252991       0.439801776585156       0.416211152536801
120                     122                     106              105.656854       -0.32191024790908      -0.364081937449232      -0.438534982695947
121                     122                     106              102.828427       0.321690743270286       0.358122752160175   -0.000989840233136214
122                     122                     106                     100      -0.310309882103518      -0.361771320070558        0.44021202047851
123                     124                     104              105.656854       0.369130863327158       0.464770338740446      -0.438299146548737
124                     124                     104              102.828427      -0.363242684186096      -0.398346452058341   -0.000496095245298756
125                     124                     104                     100       0.365633435017856       0.462152875444676        0.43899124382342
126                     126                     106              105.656854      -0.466035925234635      -0.370924594895489      -0.442372384166443
127                     126                     106              102.828427       0.401297224882297       0.362323601201729     0.00328597947359898
128                     126                     106                     100      -0.465374332620448      -0.363689932908718       0.437089346247667
129                     128                     104              105.656854       0.727899556338209       0.463086680254588      -0.330410475952166
130                     128                     104              102.828427      -0.282659859552844      -0.397505457311783    -0.00158920387655182
131                     128                     104                     100       0.727930742668011       0.460162852879945       0.332924345971062
132                     130                     106              105.656854       -1.23611772234417      -0.328882741393742      -0.853910826736798
133                     130                     106              102.828427      -0.459005717590015       0.324231295663927     0.00247694078439524
134                     130                     106                     100       -1.23785284060034      -0.325545112171655       0.849938020198351
135                     100                     108              105.656854        1.06356429934793        0.11685302083942      -0.799726105219299
136                     100                     108              102.828427       0.637896360502359      -0.117039086502443    -0.00274224688182376
137                     100                     108                     100        1.06077513345405       0.114294801016194       0.804171167899359
138                     102                     110              105.656854      -0.591119958904443      -0.155768719822789      -0.379690759046746
139                     102                     110              102.828427       0.139228150372267       0.156365988763485     0.00591195399499951
140                     102                     110                     100      -0.583942842494824      -0.150521695731131       0.370184571964682
141                     104                     108              105.656854       0.339501859308913       0.190669432961288      -0.370136134571624
142                     104                     108              102.828427       -0.26743187808775      -0.188204636818684    -0.00564985868150452
143                     104                     108                     100       0.334776559863884       0.182325624054782       0.379310201863561
144                     106                     110              105.656854      -0.301502582809701      -0.220694986051969      -0.510129234569531
145                     106                     110              102.828427       0.283597434153417       0.210675364696519       0.013136237866077
146                     106                     110                     100      -0.288370885610111      -0.199423090892752       0.484677298836226
147                     108                     108              105.656854       0.221239787379127        0.25515634802252      -0.355614118562361
148                     108                     108              102.828427      -0.227910643694769      -0.245279389564743    -0.00639055851520152
149                     108                     108                     100       0.227423089706932       0.236013057352181       0.368562204400713
150                     110                     110              105.656854      -0.169752975981354      -0.263636045078578      -0.499382894828199
151                     110                     110              102.828427       0.213229183837949       0.243612530960352     0.00667571001085598
152                     110                     110                     100      -0.220744946981093      -0.232572952791171         0.4750453601145
153                     112                     108              105.656854       0.167864561782008       0.255382749679607      -0.395769849402408
154                     112                     108              102.828427       -0.19534426227774      -0.269014152840934     0.00935600192332253
155                     112                     108                     100       0.200242197972794       0.267204350416672       0.377465852584832
156                     114                     110              105.656854      -0.171173561897756      -0.178637252789683      -0.364636377128276
157                     114                     110              102.828427       0.206860251041886       0.246422293320624     -0.0302606305150983
158                     114                     110                     100       -0.21267751103563      -0.249338922468949       0.471095187596842
159                     116                     108              105.656854       0.220296933548534       0.243672966024118      -0.433036953817838
160                     116                     108              102.828427      -0.226126850068749      -0.280450944840972      0.0225813359627254
161                     116                     108                     100       0.220192761501768       0.285764718845434       0.387607838577955
162                     118                     110              105.656854      -0.291972450471337      -0.189901594519488      -0.347667802706021
163                     118                     110              102.828427        0.26859732605688       0.257789265201464     -0.0301345056143394
164                     118                     110                     100      -0.250030364290217      -0.260314177703154       0.453707254156027
165                     120                     108              105.656854       0.307119070956933       0.289216443023814      -0.430419610282023
166                     120                     108              102.828427      -0.292850085474764      -0.303726902300284     0.00927671269723548
167                     120                     108                     100        0.27481348029928       0.300804402093282       0.412298450371749
168                     122                     110              105.656854      -0.366254080785038      -0.297354661700412       -0.44303530650254
169                     122                     110              102.828427       0.336318129901434       0.278226967361134     0.00674151851314047
170                     122                     110                     100      -0.316003262357803      -0.266075665582988        0.41859681303753
171                     124                     108              105.656854       0.375565342913282       0.324659714690445      -0.428049860169136
172                     124                     108              102.828427       -0.36901667525825      -0.317170258585661    -0.00635785628288281
173                     124                     108                     100       0.369490315489318       0.305646730913818       0.440890621563199
174                     126                     110              105.656854      -0.434008132714181      -0.276425326693994      -0.438570806488814
175                     126                     110              102.828427       0.380029701061698       0.268381212967272      0.0130382127149367
176                     126                     110                     100      -0.447053170613426      -0.255335555032044       0.413382224192435
177                     128                     108              105.656854       0.687042575405391       0.294728731714474      -0.325455796349375
178                     128                     108              102.828427      -0.246343763345149      -0.295709474397527    -0.00560314017895245
179                     128                     108                     100       0.691726531157368       0.286459040853687       0.334549051302173
180                     130                     110              105.656854       -1.17839141710977      -0.228101658388527       -0.83965126675014
181                     130                     110              102.828427      -0.513328918594905       0.231109312006823     0.00586361097613485
182                     130                     110                     100       -1.18550268140838      -0.222896751550638       0.830224422020866
183                     100                     112              105.656854        1.11905889174425       0.137846700936545      -0.806175847292128
184                     100                     112              102.828427       0.583008930655292       -0.13991371507223    -0.00469516816952628
185                     100                     112                     100        1.11293688675109       0.135675826187355       0.813730736847853
186                     102                     114              105.656854         -0.639882450401      -0.169568411836119      -0.371833086883475
187                     102                     114              102.828427       0.185496174867305       0.172524623437878     0.00902807647168991
188                     102                     114                     100      -0.626772071113343      -0.167448890969683       0.357210145302485
189                     104                     112              105.656854       0.403787610939743       0.186631573356731      -0.373241546091507
190                     104                     112              102.828427      -0.322933208364365      -0.185241891947697      -0.012837578341202
191                     104                     112                     100       0.385053637134594       0.177395469742956       0.395562642897166
192                     106                     114              105.656854      -0.356726430429478      -0.205310332073928      -0.518493461690195
193                     106                     114              102.828427       0.322219823218183       0.206764446438886      0.0242654763324998
194                     106                     114                     100      -0.322532749370234      -0.199342955192203       0.466139298725119
195                     108                     112              105.656854       0.289797404812995        0.25225374685831      -0.292622240700864
196                     108                     112              102.828427      -0.261635314827321      -0.222444220626898     -0.0240162939371359
197                     108                     112                     100       0.260921908776739       0.210853892345738       0.389869578757967
198                     110                     114              105.656854      -0.151683332380091      -0.173249280025764      -0.737594009288659
199                     110                     114              102.828427       0.222164521178404       0.225412862979292      0.0157296539426876
200                     110                     114                     100      -0.239012557861104       -0.22009484828552       0.456421332375422
201                     112                     112              105.656854       0.080819858826261       0.226785445231711      -0.429197891864674