ITEM: TIMESTEP
0
ITEM: NUMBER OF ATOMS
422
ITEM: BOX BOUNDS pp pp pp
0.0000000000000000e+00 3.2000000000000000e+01
0.0000000000000000e+00 3.2000000000000000e+01
0.0000000000000000e+00 3.2000000000000000e+01
ITEM: ATOMS id xu yu zu fx fy fz
1        13.1459321938386        14.0835208156773                 8.65685     -0.0415316169840761       0.004061320917834       0.122615517529522
2        18.8274848400711        14.0892262416344                 8.65685      0.0413768048446255     0.00445938538045778       0.126476269026143
3         17.402344993917         14.087795112765                 8.65685     -0.0367749422451677      0.0053939475410603       0.159312710779522
4         14.571072038949        14.0849519429358                 8.65685      0.0358445832326899     0.00532433257867634       0.162869063760759
5        16.7010751677692        12.8497248501637                 8.65685     -0.0144740234547337     -0.0131219019282796      0.0202563729476043
6        15.2748269908674        12.8482926087119                 8.65685      0.0148179071096669     -0.0136303149264946      0.0213836619573953
7        15.2723418650276        15.3230222053877                 8.65685      0.0113294776334128      0.0116444950617931      0.0141885831703749
8        16.6985900414216        15.3244544465825                 8.65685     -0.0109507649669256       0.011080943952134      0.0130539529105783
9        14.5177569207574        11.6484462411751                 8.65685     0.00679948154621669      0.0153738337931216      0.0234180755242179
10        17.4605534827313        11.6514014038861                 8.65685    -0.00694446176431886       0.015032152462672      0.0227605332892797
11        14.5128635507729         16.521345651893                 8.65685     0.00882116971030589     -0.0222295767302301      0.0345163004744005
12        17.4556601106552        16.5243008141789                 8.65685    -0.00920416634190491     -0.0218795573910656      0.0337688245599634
13        13.1273112602358        11.6624445878976                 8.65685    -0.00799119690070012      0.0108065859357977      0.0136660750706791
14        13.1224488081137        16.5045547622743                 8.65685     -0.0104799275939624     -0.0156546095236795      0.0210146992561288
15         18.850968226168        11.6681922935721                 8.65685     0.00792954601411867      0.0108884135034331      0.0140305168442393
16        18.8461057714963        16.5103024705805                 8.65685      0.0105813180971932     -0.0163727678386097      0.0224437352969811
17         12.426795838139        15.2943199436399                 8.65685    -0.00744246981821541      0.0071235525589295     0.00556532108541235
18        12.4292290587396        12.8712798150634                 8.65685    -0.00973433256024153    -0.00836501627079552     0.00985155970978289
19        19.5466211966922        12.8784271122721                 8.65685      0.0103528080083391    -0.00876507450717769      0.0108634519253691
20        19.5441879750283        15.3014672429596                 8.65685     0.00782263392865991      0.0074384960782063     0.00612598296624915
21        20.9551350226241        12.9244350858224                 8.65685     -0.0194756703989891     -0.0200126067925308      0.0392428180650696
22        20.9527913622507        15.2582882295758                 8.65685     -0.0148671291524626      0.0174570539802665      0.0273363086445194
23        11.0206256731611        12.9144588294926                 8.65685      0.0193949718594628      -0.020553973122135      0.0401661648597965
24        11.0182820131454        15.2483119722736                 8.65685      0.0152811415574906      0.0183120084677803      0.0294264631623486
25        21.5867264607395        14.0919970781177                 8.65685     -0.0118598718390826     0.00263434368980676      0.0683556024523085
26        10.3866905744716        14.0807499786644                 8.65685      0.0112633124722836     0.00234738450726849       0.069620475739441
27         21.609196045824        16.2859221409264                 8.65685    -0.00186903787673271    -0.00547352267847486    0.000795883342975343
28        21.6136022867001        11.8981215696947                 8.65685    -0.00150602077838036     0.00197436513764885    -0.00162592908378043
29        10.3598147507275        16.2746254872963                 8.65685     0.00172154584112035    -0.00534255688385421    0.000786372921225892
30        10.3642209902605        11.8868249167297                 8.65685     0.00144897330007622     0.00221638834520118     -0.0014178558901383
31        12.5998668222426        10.7154548000933                 8.65685    -0.00212390939103316    0.000941993064058725    -0.00638632887250291
32        12.5931035005993        17.4504833212092                 8.65685    -0.00247404989294236   -0.000842091107133358    -0.00571637399479927
33        19.3803135329519        10.7222637346313                 8.65685     0.00217013102637297    0.000991827256468954    -0.00623830385183254
34        19.3735502071424         17.457292260389                 8.65685     0.00261253032218686   -0.000906976738927055    -0.00533292207637651
35        14.9622865728669        10.6689605638796                 8.65685     0.00328159238786764     0.00220555510504673   -0.000923869290608889
36         14.955425108682        17.5017221461408                 8.65685     0.00381667590482376    -0.00190886711270952     0.00070932720734329
37        17.0179919240215        10.6710249097393                 8.65685    -0.00325335133865044     0.00214263652177691    -0.00121478685936727
38         17.011130457531        17.5037864905846                 8.65685    -0.00378135381763706     -0.0018102052870872    0.000195495968824786
39                       0                       0                5.656854                       0                       0                       0
40                       0                       0                2.828427                       0                       0                       0
41                       0                       0                       0                       0                       0                       0
42                       2                       2                5.656854    8.35415901244551e-09    9.50058394778834e-09    2.86601845181182e-09
43                       2                       2                2.828427    2.88785458205602e-10     3.2223103401116e-10    1.93422282409055e-10
44                       2                       2                       0                       0                       0                       0
45                       4                       0                5.656854    4.92671264917888e-10    8.19092484580877e-10    2.12312105334311e-10
46                       4                       0                2.828427    7.11300780998704e-10    1.18021167371753e-09    5.94621389161099e-10
47                       4                       0                       0                       0                       0                       0
48                       6                       2                5.656854    2.26968096163612e-07    4.01047739033288e-07    1.22297164698297e-07
49                       6                       2                2.828427    7.90852874570996e-09    1.38857801776353e-08    8.22456576917302e-09
50                       6                       2                       0    3.36479766264383e-09    6.07432737709644e-09    5.37661510196043e-09
51                       8                       0                5.656854    6.72277911905853e-09    1.83039691033981e-08    4.74957263139533e-09
52                       8                       0                2.828427    8.44465567476752e-09    2.30028625703605e-08    1.15776986660481e-08
53                       8                       0                       0    6.47356013749284e-11     2.1145095347152e-10    1.61831162556716e-10
54                      10                       2                5.656854    1.17167535262837e-06    4.04963463867181e-06    1.27862097852145e-06
55                      10                       2                2.828427    3.47241478244105e-08    1.18636656949792e-07    7.21750090329959e-08
56                      10                       2                       0    1.42703980609448e-08    4.88585193680438e-08    4.40199661996118e-08
57                      12                       0                5.656854    1.24875426277454e-08    8.28596872764047e-08    2.19468916595082e-08
58                      12                       0                2.828427      1.485757161594e-08    9.57928724238605e-08    4.91052250104359e-08
59                      12                       0                       0    1.79201941709139e-10    1.29607228504588e-09    1.00076078141391e-09
60                      14                       2                5.656854     7.0548688010611e-07    1.06217468611901e-05    3.42461801740121e-06
61                      14                       2                2.828427    2.05884558458758e-08    2.88402249058428e-07    1.78887461583993e-07
62                      14                       2                       0    8.20229747856245e-09    1.11779415484775e-07    1.02193597704564e-07
63                      16                       0                5.656854   -1.21116054785734e-10    1.23557703804448e-07    3.29615405936058e-08
64                      16                       0                2.828427   -1.35152189911898e-10     1.3872411136372e-07    7.16831571270836e-08
65                      16                       0                       0   -1.95015326872906e-12     2.0177814468265e-09     1.5635143262609e-09
66                      18                       2                5.656854   -7.23617090048594e-07    1.05591889925858e-05    3.40342491001061e-06
67                      18                       2                2.828427   -2.10860477213493e-08    2.86892761236625e-07     1.7790138623514e-07
68                      18                       2                       0   -8.40090685577667e-09    1.11275453155026e-07    1.01705534130227e-07
69                      20                       0                5.656854    -1.2505358606738e-08    8.19306290830782e-08    2.16930005698846e-08
70                      20                       0                2.828427   -1.48868033043364e-08    9.48107266882788e-08    4.85834089996237e-08
71                      20                       0                       0   -1.79967291171178e-10     1.2842783046672e-09    9.91235479160994e-10
72                      22                       2                5.656854   -1.15942018830603e-06    3.97832915539512e-06    1.25525824775589e-06
73                      22                       2                2.828427   -3.44219657604303e-08    1.16765968719085e-07    7.09914285377075e-08
74                      22                       2                       0   -1.41758439256498e-08    4.81898684509228e-08    4.33901476010559e-08
75                      24                       0                5.656854    -6.6124911760495e-09    1.79151783628255e-08    4.64591838629938e-09
76                      24                       0                2.828427   -8.31862074539651e-09    2.25499269312343e-08    1.13429574665905e-08
77                      24                       0                       0   -6.39400842354337e-11    2.07684972073266e-10     1.5882919942378e-10
78                      26                       2                5.656854   -2.21579500210781e-07      3.901600498062e-07    1.18879284500512e-07
79                      26                       2                2.828427   -7.73866790067858e-09    1.35411926070693e-08    8.01396432630144e-09
80                      26                       2                       0   -3.30187409560165e-09    5.94072743936836e-09    5.25378942540941e-09
81                      28                       0                5.656854   -4.79595978057435e-10    7.95313825399166e-10    2.05985944645401e-10
82                      28                       0                2.828427   -6.93711866583643e-10    1.14811403418394e-09    5.77991130118791e-10
83                      28                       0                       0                       0                       0                       0
84                      30                       2                5.656854   -8.09088142129108e-09    9.18566302430373e-09    2.76830120792017e-09
85                      30                       2                2.828427   -2.80382551629162e-10    3.12344904616945e-10    1.87296463153796e-10
86                      30                       2                       0                       0                       0                       0
87                       0                       4                5.656854    5.76283345717065e-11    2.50076928529535e-09    9.15669696480413e-10
88                       0                       4                2.828427    4.83006274384258e-11    2.22947750971568e-09    1.64644222308255e-09
89                       0                       4                       0                       0                       0                       0
90                       2                       6                5.656854    6.24343060361278e-07    4.50879642536096e-07    2.14555879077885e-07
91                       2                       6                2.828427    2.05643337710831e-08    1.48904616764211e-08    1.36618129531666e-08
92                       2                       6                       0    8.29628624089639e-09    6.03468879826899e-09    8.29116169912659e-09
93                       4                       4                5.656854    1.08055960031549e-07    1.24014959434757e-07    4.59980470191848e-08
94                       4                       4                2.828427     1.1304842751676e-07    1.28730622199475e-07    9.25095255034096e-08
95                       4                       4                       0    1.60215713293661e-09    1.82927740899795e-09    1.94999313097392e-09
96                       6                       6                5.656854     3.1465393686888e-05    3.78136618429844e-05    1.86384661198025e-05
97                       6                       6                2.828427    6.48703655995197e-07    7.65965572339678e-07    7.23949653744079e-07
98                       6                       6                       0    1.95512828064592e-07      2.270076579995e-07    3.13720378510611e-07
99                       8                       4                5.656854    1.63945272106714e-06    3.34668401337927e-06    1.29092594472698e-06
100                       8                       4                2.828427    1.27275457206136e-06    2.55087097901391e-06    1.89213376016372e-06
101                       8                       4                       0    1.37831066226808e-08    2.71359482880322e-08    2.95650638498554e-08
102                      10                       6                5.656854    0.000262040349617547    0.000665015272509104    0.000352491808633276
103                      10                       6                2.828427    3.59977853031488e-06    8.89370140061752e-06    8.90568590140011e-06
104                      10                       6                       0    7.68289670658343e-07    1.82851547668151e-06    2.64138143957884e-06
105                      12                       4                5.656854    3.74943913896415e-06    2.03268942476326e-05    8.24410251330845e-06
106                      12                       4                2.828427    2.39286505328963e-06    1.24387736524257e-05    9.62357148052374e-06
107                      12                       4                       0    2.17697717011507e-08    1.08092330534964e-07    1.21840104641965e-07
108                      14                       6                5.656854    0.000127085383063396      0.0020023836919377     0.00112227079603353
109                      14                       6                2.828427    1.77055452651262e-06    2.24772581376053e-05    2.36053468497557e-05
110                      14                       6                       0    3.85381273422963e-07     4.0479250005806e-06    6.07561442832583e-06
111                      16                       4                5.656854   -3.31322553360526e-08    3.04402563229669e-05    1.25277794067889e-05
112                      16                       4                2.828427   -2.00611316362053e-08    1.81195801678385e-05    1.42190333765676e-05
113                      16                       4                       0    -1.7301410714463e-10    1.53181643595704e-07    1.74925679890284e-07
114                      18                       6                5.656854   -0.000131517037157519     0.00199111383419764     0.00111522469925409
115                      18                       6                2.828427   -1.82053640453446e-06    2.23742249711102e-05    2.34837500238191e-05
116                      18                       6                       0    -3.9446732743152e-07    4.03267369353652e-06    6.04977426156386e-06
117                      20                       4                5.656854   -3.75127430570178e-06    2.00724063201193e-05    8.13480853921995e-06
118                      20                       4                2.828427   -2.39713502468662e-06    1.23066894925222e-05    9.51489622334368e-06
119                      20                       4                       0   -2.18341836484021e-08     1.0713389480843e-07    1.20684942381766e-07
120                      22                       6                5.656854   -0.000258692013965671    0.000651884222374218    0.000345036791779645
121                      22                       6                2.828427   -3.56679863249206e-06     8.7512422759266e-06    8.75210662340638e-06
122                      22                       6                       0    -7.6340863461719e-07     1.8047773060019e-06    2.60426423389755e-06
123                      24                       4                5.656854   -1.60710969983505e-06    3.26478107808233e-06    1.25801825126583e-06
124                      24                       4                2.828427    -1.2514456869127e-06    2.49637300330355e-06    1.84990449962885e-06
125                      24                       4                       0   -1.35944773937433e-08    2.66421432551262e-08    2.90006710481143e-08
126                      26                       6                5.656854   -3.05835419440903e-05    3.66386575914767e-05    1.80319423274043e-05
127                      26                       6                2.828427   -6.33403451677828e-07       7.45627686641e-07    7.03751920267039e-07
128                      26                       6                       0   -1.91725550800819e-07    2.21949646509262e-07    3.06345442197127e-07
129                      28                       4                5.656854   -1.04797036274383e-07    1.19995916872034e-07    4.44578878179856e-08
130                      28                       4                2.828427   -1.09979839430868e-07    1.24950657346774e-07    8.96968736065577e-08
131                      28                       4                       0    -1.4484715122502e-09    1.66045651919946e-09    1.77903654748721e-09
132                      30                       6                5.656854   -6.02619866655988e-07    4.34848890454368e-07    2.06636952692845e-07
133                      30                       6                2.828427   -1.99145608188841e-08    1.44097857170896e-08    1.32034228853538e-08
134                      30                       6                       0   -8.06978085040839e-09    5.86279226364649e-09    8.04313311899132e-09
135                       0                       8                5.656854    1.51349200073927e-09    3.49835480105967e-08    2.27807882758332e-08
136                       0                       8                2.828427    1.61962485980735e-09    4.10812385553036e-08    5.15107979996918e-08
137                       0                       8                       0    1.99474845416803e-11    5.68922905120463e-10    1.08525912231516e-09
138                       2                      10                5.656854     9.5877549962091e-06    3.08762707666914e-06    3.32385341199343e-06
139                       2                      10                2.828427    2.45403068145264e-07    8.14869936752193e-08    1.64299085662089e-07
140                       2                      10                       0    9.04782184946197e-08     3.0727486457152e-08    8.85504081144377e-08
141                       4                       8                5.656854    5.80791353091906e-06    3.74205247373931e-06    2.57444405262858e-06
142                       4                       8                2.828427    3.88484694543973e-06    2.52082132414474e-06    3.28617307625929e-06
143                       4                       8                       0    3.67362735575101e-08    2.39904823923366e-08    4.52537131617162e-08
144                       6                      10                5.656854     0.00126447249797438     0.00066058905097935     0.00079666987580533
145                       6                      10                2.828427    1.35792533303923e-05    7.32990050767576e-06    1.59826490555805e-05
146                       6                      10                       0     2.3751245045075e-06    1.30967628161167e-06    3.96734623067147e-06
147                       8                       8                5.656854    0.000205678754625118    0.000269408857283646    0.000197264128375327
148                       8                       8                2.828427     6.8870767215355e-05    8.58794126469359e-05    0.000118110741737363
149                       8                       8                       0    3.72679698378222e-07    4.46897365158583e-07    8.79434505869716e-07
150                      10                      10                5.656854      0.0103072591196424     0.00878903185259266      0.0097970020403898
151                      10                      10                2.828427    8.42046661801965e-05    0.000112377007203975    0.000268799112908376
152                      10                      10                       0    9.29201735842613e-06    1.15391958253543e-05    3.75842762534565e-05
153                      12                       8                5.656854    0.000567126149684617     0.00211977260070295     0.00177748529508524
154                      12                       8                2.828427    0.000127530590995579    0.000456737237932782    0.000690942823300999
155                      12                       8                       0    5.38428856222884e-07    1.78848570803955e-06    3.76591873329594e-06
156                      14                      10                5.656854     0.00360129962531742     -0.0105339106108407     -0.0372594363340862
157                      14                      10                2.828427     2.4274086480705e-05    0.000231876238811348    0.000635919469038901
158                      14                      10                       0    3.40304703715069e-06    2.23529277816709e-05    7.93400494448613e-05
159                      16                       8                5.656854   -2.98109631323022e-06     0.00291850298441304     0.00255018948571557
160                      16                       8                2.828427   -7.27820342854044e-07    0.000615028560172591    0.000964761657569611
161                      16                       8                       0   -3.19425242653859e-09    2.37958264748463e-06    5.16133065806284e-06
162                      18                      10                5.656854    -0.00351323466970513     -0.0104059467577698     -0.0368082450372804
163                      18                      10                2.828427   -2.51439126082708e-05    0.000231515922727339    0.000634040174936538
164                      18                      10                       0   -3.48411586128711e-06    2.23162980754982e-05    7.91233244718034e-05
165                      20                       8                5.656854   -0.000568180826297209     0.00209608271311573     0.00175446823129189
166                      20                       8                2.828427   -0.000128001051958631    0.000452790419135645     0.00068392072546964
167                      20                       8                       0   -5.40864301201505e-07    1.77627520020766e-06    3.73552439686092e-06
168                      22                      10                5.656854     -0.0102396251032891     0.00884665014053341     0.00992127082408225
169                      22                      10                2.828427   -8.37339104124668e-05    0.000111045336220921    0.000264852503908473
170                      22                      10                       0   -9.25824853932247e-06     1.1429299736838e-05    3.71429871063316e-05
171                      24                       8                5.656854   -0.000201056380784136    0.000262125579377453    0.000191495569208648
172                      24                       8                2.828427   -6.77072244006924e-05    8.40678209522318e-05     0.00011539649116077
173                      24                       8                       0   -3.67907238830921e-07    4.39386612784545e-07    8.63247212140985e-07
174                      26                      10                5.656854    -0.00122653330713921    0.000639745654667843    0.000769049002071373
175                      26                      10                2.828427   -1.32597934337334e-05    7.14338366344315e-06    1.55350454032401e-05
176                      26                      10                       0    -2.3316815810809e-06    1.28291867793927e-06    3.87793372863328e-06
177                      28                       8                5.656854   -5.61209296591183e-06    3.61071675979897e-06     2.4789484411872e-06
178                      28                       8                2.828427   -3.77332293096069e-06    2.44456247575387e-06    3.18096870921475e-06
179                      28                       8                       0    -3.5858334809982e-08     2.3377053621305e-08    4.40254818715858e-08
180                      30                      10                5.656854   -9.24121815369999e-06    2.97612871479205e-06    3.19648747862488e-06
181                      30                      10                2.828427   -2.37536606007923e-07    7.88651604521961e-08    1.58697267620173e-07
182                      30                      10                       0   -8.80148011722292e-08    2.98658274506211e-08    8.59052497215671e-08
183                       0                      12                5.656854    7.48327186758206e-09    5.24915905816451e-08      1.115020933367e-07
184                       0                      12                2.828427    7.23054749703265e-09    5.74367188038664e-08     2.2942899403802e-07
185                       0                      12                       0    8.70403866441585e-11     8.4082388186749e-10    4.71388550290242e-09
186                       2                      14                5.656854    2.32937675998531e-05    1.40248334209736e-07    8.06093794734536e-06
187                       2                      14                2.828427    5.57297530211239e-07    3.57088044087725e-09    3.73166773779717e-07
188                       2                      14                       0    1.90472988612294e-07    1.28079868325631e-09     1.8635888810705e-07
189                       4                      12                5.656854    4.83255934082893e-05    8.45395413744429e-06    2.15710686224235e-05
190                       4                      12                2.828427    2.45923132367269e-05    4.70383629237912e-06    2.09889254354894e-05
191                       4                      12                       0    1.79622834200605e-07    3.67897290405071e-08    2.23039803288239e-07
192                       6                      14                5.656854     0.00401080497163925    3.21462861285391e-05     0.00252025853253912
193                       6                      14                2.828427    3.68543215619226e-05    3.50277903145475e-07    4.36119612355488e-05
194                       6                      14                       0    5.48435940242351e-06    5.78447207166492e-08    9.25511350523497e-06
195                       8                      12                5.656854       0.003192841834603     0.00109876276681542     0.00327870241082321
196                       8                      12                2.828427    0.000605437968268358    0.000220284638959105     0.00112123986845949
197                       8                      12                       0    2.05455750874217e-06    7.86725346214702e-07    5.15511050774335e-06
198                      10                      14                5.656854     -0.0252339810848118     0.00145109329056053      -0.156495276060185
199                      10                      14                2.828427     0.00022420171280967     5.3687541331193e-06    0.000804695793299725
200                      10                      14                       0    2.05291858678507e-05    5.03710395360172e-07    8.98425991517088e-05
201                      12                      12                5.656854     0.00207903739894198     0.00244137175170191   -1.73535191893603e-05