ITEM: TIMESTEP
0
ITEM: NUMBER OF ATOMS
422
ITEM: BOX BOUNDS pp pp pp
0.0000000000000000e+00 3.2000000000000000e+01
0.0000000000000000e+00 3.2000000000000000e+01
0.0000000000000000e+00 3.2000000000000000e+01
ITEM: ATOMS id xu yu zu fx fy fz
1        13.1459321938386        15.9835208156773                 8.05685     -0.0318477661013786     0.00357400856211208       0.165745009541979
2        18.8274848400711        15.9892262416344                 8.05685      0.0321473556260348     0.00241504880701005       0.167720708702453
3         17.402344993917         15.987795112765                 8.05685     -0.0312934462154181     0.00346923000118221       0.186198701689692
4         14.571072038949        15.9849519429358                 8.05685      0.0307500702265245     0.00437318838135321       0.188356565743218
5        16.7010751677692        14.7497248501637                 8.05685      -0.166023698276452      0.0973422044410596         0.3540480492504
6        15.2748269908674        14.7482926087119                 8.05685       0.171141532868845        0.10171166024732       0.367066180376504
7        15.2723418650276        17.2230222053877                 8.05685       0.166283634274164      -0.102719383053334       0.359457717927274
8        16.6985900414216        17.2244544465825                 8.05685       -0.16086286389486     -0.0973492793964525       0.345200557825466
9        14.5177569207574        13.5484462411751                 8.05685       0.244639481440287      -0.213285422484097        1.12521716331425
10        17.4605534827313        13.5514014038861                 8.05685      -0.251107904879109      -0.208719309657755        1.10888261506753
11        14.5128635507729         18.421345651893                 8.05685       0.248046954993572       0.203691160548271        1.15105539041968
12        17.4556601106552        18.4243008141789                 8.05685      -0.256402692872768        0.19973682318788         1.1216650669441
13        13.1273112602358        13.5624445878976                 8.05685      -0.289746841790297      -0.144987295665953       0.801118208890708
14        13.1224488081137        18.4045547622743                 8.05685      -0.295480272442678       0.135940027584184       0.811781502049773
15         18.850968226168        13.5681922935721                 8.05685       0.291439606883176      -0.147588476063303       0.824951161783772
16        18.8461057714963        18.4103024705805                 8.05685       0.295410882630456       0.142958958047669        0.84013088790313
17         12.426795838139        17.1943199436399                 8.05685     -0.0977836375923253     -0.0570278526177484       0.231368408664468
18        12.4292290587396        14.7712798150634                 8.05685       -0.10229384407153       0.057288931824138       0.237581825740388
19        19.5466211966922        14.7784271122721                 8.05685       0.107052670719705      0.0601630164773531       0.244000501851622
20        19.5441879750283        17.2014672429596                 8.05685       0.105157175223875     -0.0604854495863564       0.241362535542813
21        20.9551350226241        14.8244350858224                 8.05685      -0.191303931086184       0.150913870546408       0.469373182089149
22        20.9527913622507        17.1582882295758                 8.05685      -0.187094720010686       -0.15035766902507       0.459802565892465
23        11.0206256731611        14.8144588294926                 8.05685       0.196137052603101       0.156450634134323       0.489066839150298
24        11.0182820131454        17.1483119722736                 8.05685       0.187719851132108      -0.156956524585014        0.47209589787246
25        21.5867264607395        15.9919970781177                 8.05685      -0.010420175274464     0.00110779413536706       0.072296762756391
26        10.3866905744716        15.9807499786644                 8.05685      0.0099509107423095      0.0027049670894601      0.0731132940946054
27         21.609196045824        18.1859221409264                 8.05685     -0.0989870799930746      0.0470534058504788       0.590527990910622
28        21.6136022867001        13.7981215696947                 8.05685     -0.0976633122883398     -0.0509863766778262       0.589286636102246
29        10.3598147507275        18.1746254872963                 8.05685      0.0930411289726167      0.0451235557362989       0.602981928057631
30        10.3642209902605        13.7868249167297                 8.05685       0.092889643550067     -0.0543341772851536       0.594689089343936
31        12.5998668222426        12.6154548000933                 8.05685    -0.00584918952096792     -0.0057698374780724     0.00782544177378292
32        12.5931035005993        19.3504833212092                 8.05685    -0.00631003750167598     0.00600600700625062     0.00831105570883297
33        19.3803135329519        12.6222637346313                 8.05685     0.00616556908859042    -0.00615157715104377     0.00831300276539341
34        19.3735502071424         19.357292260389                 8.05685     0.00657189674631838     0.00647868676696609     0.00884140233027047
35        14.9622865728669        12.5689605638796                 8.05685     0.00867764530032023     -0.0131902426752411      0.0167280224177874
36         14.955425108682        19.4017221461408                 8.05685     0.00932864704438124      0.0139994110355522      0.0182167554462887
37        17.0179919240215        12.5710249097393                 8.05685    -0.00861911967012753     -0.0128314726225489      0.0162682632444746
38         17.011130457531        19.4037864905846                 8.05685    -0.00910785562521921      0.0132370059934508       0.017133834284398
39                       0                       0                5.656854                       0                       0                       0
40                       0                       0                2.828427                       0                       0                       0
41                       0                       0                       0                       0                       0                       0
42                       2                       2                5.656854    6.59666475489755e-10    9.29599213015505e-10    1.89282050815375e-10
43                       2                       2                2.828427                       0                       0                       0
44                       2                       2                       0                       0                       0                       0
45                       4                       0                5.656854                       0                       0                       0
46                       4                       0                2.828427                       0                       0                       0
47                       4                       0                       0                       0                       0                       0
48                       6                       2                5.656854     2.1543246399555e-08    4.35961339491486e-08    9.00124833796915e-09
49                       6                       2                2.828427     9.4868759470022e-10     1.9462913803578e-09    8.81566323178877e-10
50                       6                       2                       0    4.21474001098734e-10    9.20877101504787e-10    6.53611491530738e-10
51                       8                       0                5.656854    8.02149963344942e-10    5.67227963186848e-11    4.50812736943352e-10
52                       8                       0                2.828427    7.92606919896435e-10    6.66447757371471e-11    1.15223467534788e-09
53                       8                       0                       0                       0                       0                       0
54                      10                       2                5.656854     9.5794459071353e-08    3.70522406205605e-07    7.83820579798499e-08
55                      10                       2                2.828427    4.17922753318706e-09    1.63577541236705e-08    7.52548714266532e-09
56                      10                       2                       0    2.17752786888618e-09    8.49861113620253e-09    6.11392407875129e-09
57                      12                       0                5.656854    1.64042576897794e-09    4.71681404828112e-10      2.162415055529e-09
58                      12                       0                2.828427     2.2503789344607e-09    3.89311632806325e-10    7.29576535012071e-09
59                      12                       0                       0    2.68931299544941e-12    5.65573978746771e-11    3.61203363879693e-11
60                      14                       2                5.656854    5.98215490736472e-08    9.20816982823806e-07    1.97945389488125e-07
61                      14                       2                2.828427    2.61884953886703e-09    3.94501843387657e-08    1.83742433825791e-08
62                      14                       2                       0    1.57295569527206e-09    2.10229257946361e-08    1.52696330336956e-08
63                      16                       0                5.656854   -9.19581225721772e-12    3.59772559385078e-10    3.33335846309087e-09
64                      16                       0                2.828427   -1.46652974889782e-11    5.33898658566918e-10    1.15267787610566e-08
65                      16                       0                       0    -2.1267898471621e-13    3.82512463965712e-12    1.45303330843005e-10
66                      18                       2                5.656854   -6.12738480444032e-08    9.15527426501675e-07    1.96768467348634e-07
67                      18                       2                2.828427   -2.68161979029416e-09    3.92415949785988e-08    1.82731390801473e-08
68                      18                       2                       0   -1.60621693861987e-09    2.09245073480761e-08    1.51950360528698e-08
69                      20                       0                5.656854   -1.65248254877866e-09     2.0330902918904e-10    2.18307760016478e-09
70                      20                       0                2.828427   -2.26630110252652e-09    2.86719312674478e-10    7.26040745989159e-09
71                      20                       0                       0    -2.7498438301932e-12    5.60109924928406e-11    3.57520785774585e-11
72                      22                       2                5.656854   -9.48832915683133e-08    3.64337277846594e-07    7.70337472856322e-08
73                      22                       2                2.828427   -4.14455081075675e-09    1.61040686683417e-08    7.40497063148602e-09
74                      22                       2                       0   -2.16259293426425e-09    8.38099005299914e-09    6.02605292756417e-09
75                      24                       0                5.656854   -7.95875282299976e-10    3.67094621644875e-11    4.45085671624297e-10
76                      24                       0                2.828427   -7.89306094670553e-10    3.82259630271663e-11    1.14018582032481e-09
77                      24                       0                       0                       0                       0                       0
78                      26                       2                5.656854   -2.10638882129707e-08    4.24747349447083e-08    8.76394940551808e-09
79                      26                       2                2.828427   -9.28986443893325e-10     1.8991609353009e-09     8.5963199518063e-10
80                      26                       2                       0     -4.136370100807e-10    9.00521113403855e-10    6.38664012302947e-10
81                      28                       0                5.656854                       0                       0                       0
82                      28                       0                2.828427                       0                       0                       0
83                      28                       0                       0                       0                       0                       0
84                      30                       2                5.656854   -6.39232062000012e-10    8.99282127624647e-10    1.82933655702828e-10
85                      30                       2                2.828427                       0                       0                       0
86                      30                       2                       0                       0                       0                       0
87                       0                       4                5.656854    6.70546425675326e-12    3.63591055507713e-10    8.91119491670671e-11
88                       0                       4                2.828427                       0                       0                       0
89                       0                       4                       0                       0                       0                       0
90                       2                       6                5.656854    1.23229329193645e-07    1.13287095692097e-07     3.3698667857865e-08
91                       2                       6                2.828427    5.52767613216778e-09    5.01444201951875e-09    3.25613824645908e-09
92                       2                       6                       0    2.95325973081332e-09    2.68515431483945e-09    2.72697056000564e-09
93                       4                       4                5.656854    1.37028874768564e-08     1.8735365943162e-08    4.56857166066358e-09
94                       4                       4                2.828427    2.02471319640444e-08    2.78064300235696e-08    1.47307198396692e-08
95                       4                       4                       0    2.54405173443562e-10    3.53558888760069e-10    2.98941130231458e-10
96                       6                       6                5.656854    4.27742889327683e-06    6.35086139389401e-06    1.93976229435493e-06
97                       6                       6                2.828427    1.45953390271888e-07    2.13792614078987e-07    1.41369509097886e-07
98                       6                       6                       0    6.60685597845403e-08    9.57145591522832e-08    9.70176628943779e-08
99                       8                       4                5.656854    1.63269052644366e-07    3.84232459493879e-07    9.63387471197764e-08
100                       8                       4                2.828427    2.04148202862843e-07    4.76486440398778e-07    2.58762651746304e-07
101                       8                       4                       0    3.24648872103719e-09    7.58643861336752e-09    6.34779793217624e-09
102                      10                       6                5.656854    2.94020388822179e-05    8.78543088455682e-05    2.83225934166575e-05
103                      10                       6                2.828427    7.66486799267225e-07    2.25637431873871e-06    1.56143357167422e-06
104                      10                       6                       0    2.66803600651587e-07    7.67425884746861e-07    8.04365792901691e-07
105                      12                       4                5.656854    3.36000873556189e-07    2.02823795342136e-06    5.25582136465842e-07
106                      12                       4                2.828427    3.74836623266252e-07    2.19631421238678e-06    1.22868693748307e-06
107                      12                       4                       0    5.41474936747508e-09    3.09287532771779e-08    2.64261659751513e-08
108                      14                       6                5.656854     1.6435805672886e-05     0.00025451204429053    8.48795826904132e-05
109                      14                       6                2.828427    4.24189670301631e-07    5.81564527889798e-06    4.15218634532642e-06
110                      14                       6                       0    1.46580466421598e-07    1.76504673172813e-06    1.90015165961282e-06
111                      16                       4                5.656854   -3.17558833343215e-09    3.05090626122607e-06    7.98619990907674e-07
112                      16                       4                2.828427   -3.38029537000049e-09     3.2352804036414e-06    1.82828733084998e-06
113                      16                       4                       0   -4.69921718148243e-11    4.47338930449033e-08    3.85395198124632e-08
114                      18                       6                5.656854   -1.69215193481482e-05    0.000252947635292778    8.43200957572251e-05
115                      18                       6                2.828427   -4.35398525976963e-07    5.78493776823846e-06     4.1285810678616e-06
116                      18                       6                       0   -1.50032452241932e-07    1.75723175488452e-06    1.89105386606728e-06
117                      20                       4                5.656854   -3.36226944364915e-07    2.00363677711293e-06    5.18926407883772e-07
118                      20                       4                2.828427   -3.75407443122186e-07    2.17241538395757e-06    1.21469826651409e-06
119                      20                       4                       0   -5.42917600849801e-09    3.06373620775688e-08    2.61645930161079e-08
120                      22                       6                5.656854   -2.90410715298654e-05    8.61520147180551e-05    2.77465095001128e-05
121                      22                       6                2.828427   -7.58998689632911e-07    2.21851965850208e-06    1.53384978505968e-06
122                      22                       6                       0   -2.64870205855157e-07    7.56607757175699e-07    7.92373684807941e-07
123                      24                       4                5.656854   -1.60264912419404e-07    3.75322653063282e-07    9.40314269898052e-08
124                      24                       4                2.828427   -2.00792819182128e-07    4.66403990243645e-07    2.53097250176157e-07
125                      24                       4                       0   -3.20131323831778e-09    7.44531053609876e-09    6.22507474367191e-09
126                      26                       6                5.656854   -4.16430890179481e-06    6.16198370826169e-06    1.87997355323327e-06
127                      26                       6                2.828427   -1.42530384750134e-07    2.08090730366248e-07    1.37453314524554e-07
128                      26                       6                       0   -6.47510073469813e-08     9.3505447495389e-08    9.46822975016481e-08
129                      28                       4                5.656854   -1.33116583409446e-08    1.81549383828667e-08    4.42312873587794e-09
130                      28                       4                2.828427   -1.97096299329632e-08    2.70017458971167e-08    1.42918724552718e-08
131                      28                       4                       0   -2.48414301218599e-10    3.44431966115955e-10    2.90929501676254e-10
132                      30                       6                5.656854   -1.19054355814576e-07    1.09356436497265e-07     3.2493306779549e-08
133                      30                       6                2.828427   -5.35611266316342e-09    4.85139012178944e-09    3.14664753880433e-09
134                      30                       6                       0   -2.87142742255132e-09    2.60710519767844e-09    2.64443246631077e-09
135                       0                       8                5.656854    4.91931903897362e-10    1.56336955050444e-08    5.96033637526205e-09
136                       0                       8                2.828427    6.27689740282417e-10     2.1364058508216e-08    1.79761456616497e-08
137                       0                       8                       0    6.91225772822738e-12     2.5581354786126e-10    3.55821039252282e-10
138                       2                      10                5.656854    4.20592323960434e-06    2.12845702444568e-06    1.16562004831964e-06
139                       2                      10                2.828427    1.46884753763354e-07      7.537279807642e-08    8.83020565419001e-08
140                       2                      10                       0    6.91454747346765e-08    3.55887953427435e-08    6.30582936829511e-08
141                       4                       8                5.656854    1.35156955771429e-06      1.202333526533e-06    4.72944601712689e-07
142                       4                       8                2.828427    1.39633517616834e-06    1.23750725655758e-06    1.04925667992028e-06
143                       4                       8                       0    1.88452807804952e-08    1.66453083025685e-08    2.14523165271047e-08
144                       6                      10                5.656854    0.000410625953538156    0.000351350405645749     0.00020432221690576
145                       6                      10                2.828427    7.41680904007994e-06    6.30067145426298e-06    7.75969548309843e-06
146                       6                      10                       0    1.83021770261209e-06    1.54067521769754e-06     2.8256328981855e-06
147                       8                       8                5.656854    3.32465608544731e-05    5.63581777280314e-05    2.32889201879037e-05
148                       8                       8                2.828427    2.19170348896305e-05    3.59458756727843e-05    3.18485433290992e-05
149                       8                       8                       0    1.88223474994659e-07    2.98283791840183e-07    3.98740949105518e-07
150                      10                      10                5.656854     0.00447461542050233     0.00889338019853239     0.00567500265182384
151                      10                      10                2.828427    5.00812007564323e-05    9.74371758710453e-05     0.00012982643620219
152                      10                      10                       0    7.84285358287804e-06    1.43438793000684e-05      2.796931039813e-05
153                      12                       8                5.656854    9.43775863251281e-05    0.000441868396026271     0.00019976598484852
154                      12                       8                2.828427    4.52499910416441e-05    0.000202035886636419    0.000191835160898856
155                      12                       8                       0    3.02239698570551e-07    1.26947682387925e-06    1.78792785781242e-06
156                      14                      10                5.656854     0.00143942028418923       0.020224077965179      0.0138970175405884
157                      14                      10                2.828427    1.92045563010323e-05    0.000241647256279983    0.000351825283745913
158                      14                      10                       0    3.34334112851405e-06    3.07490571462815e-05    6.38856163552497e-05
159                      16                       8                5.656854   -7.09884822607509e-07    0.000651239691264133    0.000301501987150623
160                      16                       8                2.828427    -3.3114767099819e-07    0.000288479405523167    0.000280264278903108
161                      16                       8                       0    -2.1409518787093e-09    1.76310776696495e-06    2.53455082355922e-06
162                      18                      10                5.656854    -0.00150621267221147      0.0201997339501891      0.0138741563258168
163                      18                      10                2.828427   -1.98825587848456e-05    0.000240798664549061    0.000350261897887646
164                      18                      10                       0   -3.42800311023883e-06    3.06592629531634e-05    6.36506300485006e-05
165                      20                       8                5.656854   -9.43890890254158e-05    0.000435965880772977    0.000196864440064166
166                      20                       8                2.828427   -4.53412357802084e-05    0.000199889527441194     0.00018959977278645
167                      20                       8                       0   -3.03242080758595e-07    1.25872503642268e-06    1.77119162200448e-06
168                      22                      10                5.656854    -0.00442429965909091     0.00874095338093562     0.00556583521934061
169                      22                      10                2.828427   -4.96398264742823e-05    9.59274253844933e-05    0.000127558949456033
170                      22                      10                       0   -7.79820686631185e-06    1.41705190393853e-05    2.75863474701278e-05
171                      24                       8                5.656854   -3.25039811266442e-05    5.48305775073547e-05    2.26223621145355e-05
172                      24                       8                2.828427    -2.1520156930371e-05    3.51324645591054e-05    3.10839895515916e-05
173                      24                       8                       0   -1.85547841464943e-07    2.92754669149421e-07    3.90862091675632e-07
174                      26                      10                5.656854   -0.000397879928532645     0.00033958203717437    0.000197022753526268
175                      26                      10                2.828427   -7.22988423718457e-06    6.12605942222998e-06    7.52947718886284e-06
176                      26                      10                       0   -1.79371995891925e-06    1.50601617681828e-06    2.75734961151454e-06
177                      28                       8                5.656854   -1.30692616287546e-06    1.16033407092444e-06    4.55746167461001e-07
178                      28                       8                2.828427   -1.35564548709988e-06    1.19906553709106e-06    1.01521384532562e-06
179                      28                       8                       0   -1.83767940852773e-08    1.61987906095505e-08     2.0849624887301e-08
180                      30                      10                5.656854   -4.05254127012652e-06    2.05022290388548e-06    1.12064961316574e-06
181                      30                      10                2.828427   -1.42034795071522e-07    7.28660793871874e-08    8.52185358159581e-08
182                      30                      10                       0    -6.6336787767756e-08     3.4088079072709e-08    6.04944116587298e-08
183                       0                      12                5.656854    5.46541611008295e-09    7.61854461116802e-08     6.4560013182251e-08
184                       0                      12                2.828427    6.73275642618359e-09    1.03676644420556e-07    1.87291247244361e-07
185                       0                      12                       0    9.98519593926979e-11    1.79566764892962e-09    4.85828647414451e-09
186                       2                      14                5.656854    2.52396824918335e-05    3.57922817372914e-06    6.99755657972609e-06
187                       2                      14                2.828427    7.62415482679302e-07    1.14342817197756e-07    4.58601209079191e-07
188                       2                      14                       0    3.04414374938402e-07     4.8102314933891e-08    2.79718190591465e-07
189                       4                      12                5.656854    3.32095234299233e-05    1.25300236736667e-05    1.18942636647402e-05
190                       4                      12                2.828427    2.31562730331263e-05    9.07554720746206e-06    1.77825998111958e-05
191                       4                      12                       0    2.08662869269251e-07    8.47778830537442e-08    2.41649009540646e-07
192                       6                      14                5.656854     0.00491387423950261    0.000999452569884327      0.0024876361208461
193                       6                      14                2.828427    5.98663141087438e-05    1.36737667732319e-05    6.41079517661144e-05
194                       6                      14                       0    1.00161098507395e-05     2.5139079076859e-06    1.58453175964925e-05
195                       8                      12                5.656854     0.00206555343039883     0.00162536380747328     0.00169093838483036
196                       8                      12                2.828427    0.000613456476121627    0.000477323909464869     0.00102000758159012
197                       8                      12                       0    2.59249789538274e-06    1.98818445877718e-06    6.03604240733267e-06
198                      10                      14                5.656854      -0.307810589583549      -0.139014101480777       -1.13516433819805
199                      10                      14                2.828427    0.000423643982260467     0.00025825315294311     0.00139780730834474
200                      10                      14                       0    4.12413301378827e-05    2.45324547136441e-05    0.000170626357630089
201                      12                      12                5.656854    -0.00225138268741143    0.000603668153008361    -0.00639503985783064