ITEM: TIMESTEP
0
ITEM: NUMBER OF ATOMS
422
ITEM: BOX BOUNDS pp pp pp
0.0000000000000000e+00 3.2000000000000000e+01
0.0000000000000000e+00 3.2000000000000000e+01
0.0000000000000000e+00 3.2000000000000000e+01
ITEM: ATOMS id xu yu zu fx fy fz
1        12.1459321938386        15.9835208156773                 8.65685   -0.000894623174337695     0.00010937892471267    -0.00422192795109775
2        17.8274848400711        15.9892262416344                 8.65685    -0.00198417604866649    0.000557794220681251      0.0183520820634573
3         16.402344993917         15.987795112765                 8.65685    -0.00250256850473046    0.000123234122759441    -0.00292570342022152
4         13.571072038949        15.9849519429358                 8.65685    -0.00442303645649444    0.000707865130475563      0.0155438610731182
5        15.7010751677692        14.7497248501637                 8.65685      0.0109189446175165     0.00745720621702076      0.0154155882183603
6        14.2748269908674        14.7482926087119                 8.65685      0.0142432284789476       0.038819188287799       0.131700870103968
7        14.2723418650276        17.2230222053877                 8.65685      0.0137429026741347     -0.0392388014035449       0.127807091613384
8        15.6985900414216        17.2244544465825                 8.65685      0.0107338952751162    -0.00753133264482474      0.0148613097126955
9        13.5177569207574        13.5484462411751                 8.65685     -0.0283554612880252      -0.026547648139361       0.151526047004815
10        16.4605534827313        13.5514014038861                 8.65685     -0.0206587006614726    -0.00728815880585533      0.0317996027258204
11        13.5128635507729         18.421345651893                 8.65685      -0.029037256612201      0.0251088796541942       0.153841918637181
12        16.4556601106552        18.4243008141789                 8.65685     -0.0207301651191349     0.00693689188995707       0.032042521059521
13        12.1273112602358        13.5624445878976                 8.65685    -0.00594616702556228    -0.00469250697672153      0.0166863523355441
14        12.1224488081137        18.4045547622743                 8.65685    -0.00582037579209015     0.00441001498484788      0.0170925116907178
15         17.850968226168        13.5681922935721                 8.65685     -0.0101073704547603     -0.0293121959646126       0.177672667898452
16        17.8461057714963        18.4103024705805                 8.65685     -0.0105477086175774      0.0281447128519361       0.179742583129613
17         11.426795838139        17.1943199436399                 8.65685      0.0189204047537839     -0.0116999621028111      0.0277477431573449
18        11.4292290587396        14.7712798150634                 8.65685      0.0195131066251932      0.0115627010112818      0.0289487597659561
19        18.5466211966922        14.7784271122721                 8.65685      0.0239363455312942      0.0340865680174152       0.108712215965886
20        18.5441879750283        17.2014672429596                 8.65685      0.0233983089831397     -0.0343286665637449       0.106468737558832
21        19.9551350226241        14.8244350858224                 8.65685     0.00154108835859645     0.00597570320065456     0.00852711802514664
22        19.9527913622507        17.1582882295758                 8.65685     0.00159171618033321    -0.00597821110328067     0.00820137492096427
23        10.0206256731611        14.8144588294926                 8.65685     0.00104960230802018      0.0414795267231461       0.129094240786842
24        10.0182820131454        17.1483119722736                 8.65685    0.000894840384719494     -0.0416965965059537       0.123551127575521
25        20.5867264607395        15.9919970781177                 8.65685     -0.0011529077291403    4.22141986955878e-05    -0.00882803654961991
26         9.3866905744716        15.9807499786644                 8.65685    -0.00193867259368234    0.000321730250386106    -0.00345508486709095
27         20.609196045824        18.1859221409264                 8.65685     -0.0119543773155786     0.00167116587322494      0.0123882988922626
28        20.6136022867001        13.7981215696947                 8.65685     -0.0119792416727529    -0.00182065843234599      0.0124754666365712
29        9.35981475072747        18.1746254872963                 8.65685     -0.0155383608367194      0.0042168842682715      0.0554081383715734
30        9.36422099026049        13.7868249167297                 8.65685      -0.015337301026683    -0.00511771581314854       0.054987263997413
31        11.5998668222426        12.6154548000933                 8.65685    0.000367035062633282    -0.00024422526844855    -0.00972454340470688
32        11.5931035005993        19.3504833212092                 8.65685    0.000419055317375166    0.000273238356693921     -0.0096437485791351
33        18.3803135329519        12.6222637346313                 8.65685    0.000707984127735148    -0.00290757867006598    -0.00474583353013748
34        18.3735502071424         19.357292260389                 8.65685     0.00073184981721118     0.00300227474130932    -0.00447219556974932
35        13.9622865728669        12.5689605638796                 8.65685   -6.93350131792028e-05    -0.00298359749641819    -0.00475596373599914
36         13.955425108682        19.4017221461408                 8.65685   -8.77948357555502e-05     0.00312049557409622    -0.00439006781188877
37        16.0179919240215        12.5710249097393                 8.65685   -1.31040430471074e-05    2.57813800948192e-05     -0.0101696352333853
38         16.011130457531        19.4037864905846                 8.65685    -9.0096300150444e-06   -2.07645357912789e-05      -0.010149205112905
39                       0                       0                5.656854                       0                       0                       0
40                       0                       0                2.828427                       0                       0                       0
41                       0                       0                       0                       0                       0                       0
42                       2                       2                5.656854     1.5722104289904e-09    2.30509268396229e-09    5.99959084310506e-10
43                       2                       2                2.828427                       0                       0                       0
44                       2                       2                       0                       0                       0                       0
45                       4                       0                5.656854                       0                       0                       0
46                       4                       0                2.828427                       0                       0                       0
47                       4                       0                       0                       0                       0                       0
48                       6                       2                5.656854     2.9362367824797e-08    6.79568444021154e-08    1.76566914290739e-08
49                       6                       2                2.828427    1.11786707667631e-09    2.56712965120297e-09     1.3033694184224e-09
50                       6                       2                       0    1.89421348717645e-10    3.59078854785975e-10    2.92827000123127e-10
51                       8                       0                5.656854    1.00685603018622e-09    8.06312694131297e-11    8.15138094247462e-10
52                       8                       0                2.828427    4.76730876315169e-10    3.48619498544403e-11    7.72568539636404e-10
53                       8                       0                       0                       0                       0                       0
54                      10                       2                5.656854    8.51878826642939e-08    4.18742763850553e-07    1.11224130735673e-07
55                      10                       2                2.828427    2.99062294265897e-09    1.48218449540616e-08    7.64431047668997e-09
56                      10                       2                       0    1.36655734364029e-09    6.70254109068048e-09    5.20464042475122e-09
57                      12                       0                5.656854    1.08601292043695e-09    2.48163454474298e-10    2.62751724687886e-09
58                      12                       0                2.828427    1.16328519560815e-09    2.79343772197336e-10    6.10725538348538e-09
59                      12                       0                       0                       0                       0                       0
60                      14                       2                5.656854     2.4229254661328e-08    7.90904938016028e-07    2.12501319969195e-07
61                      14                       2                2.828427    8.46858663620248e-10    2.75594495311967e-08    1.43433067176633e-08
62                      14                       2                       0    5.48907363097449e-10    1.24942841728312e-08    9.76800207913242e-09
63                      16                       0                5.656854     -4.292763967552e-10    2.67219775424322e-10    3.27405004569808e-09
64                      16                       0                2.828427    -3.6868500820342e-10     3.1309113436879e-10    8.09789942684996e-09
65                      16                       0                       0                       0                       0                       0
66                      18                       2                5.656854   -6.96060128167416e-08    6.47996942863195e-07    1.73471886633586e-07
67                      18                       2                2.828427   -2.48951108847394e-09    2.27094378660262e-08    1.17773633891475e-08
68                      18                       2                       0   -7.09949862004476e-10    9.29018465373327e-09    7.25705035361656e-09
69                      20                       0                5.656854    -1.2909869736933e-09    1.17427934130454e-10    1.64820344494591e-09
70                      20                       0                2.828427   -1.20862246894947e-09    7.43372530947971e-10      3.356660277676e-09
71                      20                       0                       0                       0                       0                       0
72                      22                       2                5.656854    -6.0864379522875e-08    1.93095493040512e-07    5.07351913824165e-08
73                      22                       2                2.828427   -2.23045857025544e-09    7.13250686443856e-09    3.64328255277235e-09
74                      22                       2                       0   -5.96315691312843e-10    2.11876674416981e-09    1.65781553082753e-09
75                      24                       0                5.656854   -3.00038209443791e-10    1.21670219383747e-11     2.0024740038595e-10
76                      24                       0                2.828427   -1.39482207996866e-10    3.13288156901382e-10    1.44663107799099e-10
77                      24                       0                       0                       0                       0                       0
78                      26                       2                5.656854   -8.60579780104442e-09    1.54703433905157e-08    3.99791333887509e-09
79                      26                       2                2.828427   -2.44955889544837e-10    4.59026986666789e-10    2.34186089121701e-10
80                      26                       2                       0                       0                       0                       0
81                      28                       0                5.656854                       0                       0                       0
82                      28                       0                2.828427                       0                       0                       0
83                      28                       0                       0                       0                       0                       0
84                      30                       2                5.656854                       0                       0                       0
85                      30                       2                2.828427                       0                       0                       0
86                      30                       2                       0                       0                       0                       0
87                       0                       4                5.656854    5.15493531259442e-10    5.16442484299695e-10    1.60591397011904e-10
88                       0                       4                2.828427    6.36356170586189e-10    6.65074695768621e-10    3.96077040972662e-10
89                       0                       4                       0                       0                       0                       0
90                       2                       6                5.656854    2.73436209211792e-07    2.76754690887143e-07    1.03218824681259e-07
91                       2                       6                2.828427    9.55505215572341e-09    9.60372093294815e-09    6.95187347470283e-09
92                       2                       6                       0    3.75451922053157e-09    3.82531550311701e-09    4.18369398266062e-09
93                       4                       4                5.656854    2.36258791402675e-08    3.64788346694651e-08    1.11507289243872e-08
94                       4                       4                2.828427    2.79759004072417e-08     4.2757817978868e-08    2.54008810993277e-08
95                       4                       4                       0    2.57288044656196e-10    4.09495988170815e-10    3.74040551538512e-10
96                       6                       6                5.656854    6.23573546352489e-06    1.07331810781581e-05    4.13749844595926e-06
97                       6                       6                2.828427    1.59247471708458e-07    2.69436909553768e-07    2.00145569506081e-07
98                       6                       6                       0    5.80842566196471e-08    9.66528962122536e-08    1.05914066780229e-07
99                       8                       4                5.656854    1.85599713018818e-07    5.19286459272543e-07    1.64157586520634e-07
100                       8                       4                2.828427    1.81573961672554e-07    5.02384716228715e-07    3.06239470193475e-07
101                       8                       4                       0    2.29825892231634e-09    6.48032622471675e-09    5.86550382973208e-09
102                      10                       6                5.656854     2.5073638131924e-05    9.67255339451388e-05    3.93767121238702e-05
103                      10                       6                2.828427     4.9773138209397e-07    1.87529737925012e-06    1.45680043053227e-06
104                      10                       6                       0     1.4491964830295e-07    5.31304256436836e-07    6.01591660767706e-07
105                      12                       4                5.656854    2.13041968785349e-07    1.90098561872842e-06    6.17606122522701e-07
106                      12                       4                2.828427     1.9379709743196e-07    1.64174980998292e-06    1.02583063675684e-06
107                      12                       4                       0    2.38265192515388e-09    1.95748178845269e-08    1.80320825970836e-08
108                      14                       6                5.656854    5.28277775423579e-06    0.000193591994086386    8.06944451173962e-05
109                      14                       6                2.828427    1.15363170656154e-07    3.50684216489135e-06    2.78591176052287e-06
110                      14                       6                       0    3.64673306459105e-08    9.34096393371793e-07       1.07885529097e-06
111                      16                       4                5.656854   -7.29605989096357e-08    2.29006167374101e-06    7.47615363665293e-07
112                      16                       4                2.828427   -6.83206931178555e-08    1.96214445936162e-06    1.23202715374103e-06
113                      16                       4                       0   -8.26085431114306e-10    2.33453480267615e-08    2.15777116627637e-08
114                      18                       6                5.656854   -1.95138071121614e-05    0.000160163261117378    6.62314508266812e-05
115                      18                       6                2.828427   -3.84782821512416e-07    2.92671036157325e-06    2.30715728977826e-06
116                      18                       6                       0   -1.12242210917853e-07    7.87408851702533e-07    9.02983534671774e-07
117                      20                       4                5.656854   -2.66482151570865e-07    1.16283778286678e-06    3.73583787200101e-07
118                      20                       4                2.828427   -2.43603795495861e-07     1.0440539079476e-06    6.45709183847072e-07
119                      20                       4                       0    -3.0320174312038e-09    1.29625094255887e-08    1.18226706006492e-08
120                      22                       6                5.656854    -1.5826977500057e-05    3.81118758589754e-05    1.50821932805402e-05
121                      22                       6                2.828427   -3.51846855144026e-07    8.32326054045348e-07    6.31549461078717e-07
122                      22                       6                       0   -1.12933789578583e-07    2.62192941900754e-07    2.91444916704177e-07
123                      24                       4                5.656854   -7.90353040999077e-08    1.58604097838329e-07    4.91513980228013e-08
124                      24                       4                2.828427   -8.42407211218269e-08    1.67986498745003e-07    1.00776284449604e-07
125                      24                       4                       0   -1.23594643981569e-09    2.42206432117818e-09    2.16759135205371e-09
126                      26                       6                5.656854   -1.53331175875131e-06    1.97141711810372e-06    7.44581196825681e-07
127                      26                       6                2.828427   -4.59452079280755e-08     5.8517694722015e-08    4.26800050912339e-08
128                      26                       6                       0   -1.95071626178743e-08    2.44000541128798e-08    2.65256126514887e-08
129                      28                       4                5.656854   -4.64128779831174e-09    5.72504754170985e-09    1.73129737198631e-09
130                      28                       4                2.828427   -5.00449297763283e-09    6.28415284653975e-09    3.72362484234322e-09
131                      28                       4                       0                       0                       0                       0
132                      30                       6                5.656854   -3.07465752766109e-08    2.84888402509789e-08    1.06054893511995e-08
133                      30                       6                2.828427    -1.1194855823677e-09    1.08573286423038e-09    7.83381412200467e-10
134                      30                       6                       0   -4.54716378283657e-10    3.77773636478552e-10    4.19374034595536e-10
135                       0                       8                5.656854    3.50089372022263e-08    2.57035685873622e-08    1.23157766575684e-08
136                       0                       8                2.828427    4.06822548142504e-08     2.8733379680825e-08    2.68202958438325e-08
137                       0                       8                       0    5.23912013781636e-10    3.33960716396197e-10    4.74386772096092e-10
138                       2                      10                5.656854    1.11201703403749e-05    6.22550663373591e-06    4.30960718340379e-06
139                       2                      10                2.828427    2.71281615686526e-07    1.53429738496007e-07    2.01677170909596e-07
140                       2                      10                       0    9.60247480042338e-08    5.48752460111796e-08    1.04560243528644e-07
141                       4                       8                5.656854    2.66775751757134e-06    2.71728374978947e-06     1.3461531865586e-06
142                       4                       8                2.828427    1.96491756788516e-06    1.98127585329281e-06    1.88281246022259e-06
143                       4                       8                       0    2.02334027788414e-08    2.02633681680157e-08    2.81948923690737e-08
144                       6                      10                5.656854    0.000651764802720662    0.000673841879323468    0.000494956573234479
145                       6                      10                2.828427    7.81311396881351e-06    7.88093338187901e-06    1.08897114618156e-05
146                       6                      10                       0    1.49749974558796e-06     1.4764466159866e-06    2.92267875374927e-06
147                       8                       8                5.656854    3.73891697715167e-05    7.63401211404286e-05    4.01612143811328e-05
148                       8                       8                2.828427    1.76595986896314e-05     3.4806341729328e-05    3.47858936579153e-05
149                       8                       8                       0    1.23536376469066e-07    2.34722083498462e-07    3.39721616078012e-07
150                      10                      10                5.656854     0.00334933580760622     0.00870227058655345     0.00715343822657541
151                      10                      10                2.828427    2.65012478694455e-05    6.64737839390998e-05    0.000100327139935879
152                      10                      10                       0     3.6201077441467e-06    8.54831729059824e-06    1.80600790255406e-05
153                      12                       8                5.656854    4.65640695527777e-05     0.00035900351028409    0.000203676352861618
154                      12                       8                2.828427    1.82371740415743e-05    0.000125355783931164    0.000132971109181136
155                      12                       8                       0    1.12709632419294e-07    6.93638294324089e-07    1.05104704163936e-06
156                      14                      10                5.656854    0.000249677000739566      0.0155315497712226      0.0136556014814016
157                      14                      10                2.828427    3.30330827803441e-06    0.000114728984790089    0.000184025343565397
158                      14                      10                       0    6.81379450995322e-07    1.39075380505186e-05    3.07651438557782e-05
159                      16                       8                5.656854   -9.76791969995615e-06    0.000418853757091073    0.000240263198860439
160                      16                       8                2.828427    -4.9802139072394e-06    0.000145944864141765    0.000156450716988547
161                      16                       8                       0   -3.63985603837712e-08    8.04283451944319e-07    1.23042264321749e-06
162                      18                      10                5.656854    -0.00230486044697288      0.0136757557409224      0.0117895500832533
163                      18                      10                2.828427   -1.79978584956119e-05    0.000101053054230582    0.000159142498603965
164                      18                      10                       0   -2.48582730332416e-06    1.21869445304066e-05    2.65348323818957e-05
165                      20                       8                5.656854   -6.31459120743263e-05    0.000203481234178476    0.000112118844877687
166                      20                       8                2.828427   -2.50038914357196e-05    7.84824368119625e-05    8.11178861384623e-05
167                      20                       8                       0   -1.54722483910996e-07    4.65460814148268e-07    6.90663375234841e-07
168                      22                      10                5.656854     -0.0020183521998745     0.00322363635162505     0.00246492417294017
169                      22                      10                2.828427    -1.8967196241473e-05     2.8649927505283e-05    4.09622718336049e-05
170                      22                      10                       0   -2.96666132356257e-06    4.25049855359402e-06    8.64846719367301e-06
171                      24                       8                5.656854   -1.25338090581276e-05    1.75329373777866e-05    8.87405767980231e-06
172                      24                       8                2.828427   -7.30065929808129e-06    9.94136074961864e-06    9.63199112778687e-06
173                      24                       8                       0   -6.10434573124426e-08    8.10249431033155e-08    1.14508038907174e-07
174                      26                      10                5.656854   -0.000102255087240475    7.40957856990265e-05    5.27059946120239e-05
175                      26                      10                2.828427   -1.76606306731302e-06    1.28261905643682e-06    1.72307006142263e-06
176                      26                      10                       0   -4.55390039034205e-07    3.31301958134247e-07    6.40816533804036e-07
177                      28                       8                5.656854   -3.53537795962776e-07    2.78220891731776e-07    1.35201427692748e-07
178                      28                       8                2.828427   -3.33238056025944e-07    2.62072529661178e-07    2.44887923028047e-07
179                      28                       8                       0   -4.27199116231671e-09    3.36076506084861e-09     4.6434003178817e-09
180                      30                      10                5.656854   -8.20866264471856e-07    4.31207637873574e-07    2.89688070558909e-07
181                      30                      10                2.828427   -2.65345466090975e-08    1.42072862858313e-08    1.82587369986911e-08
182                      30                      10                       0   -1.05688309413109e-08    5.37365427007439e-09    1.07065786265318e-08
183                       0                      12                5.656854    4.34019950665958e-07    1.38992191036161e-07    1.49925129863233e-07
184                       0                      12                2.828427    4.09539250185461e-07    1.38607017770931e-07    2.81431373459925e-07
185                       0                      12                       0    5.46930468775266e-09    1.81015753342332e-09     5.4108465046639e-09
186                       2                      14                5.656854     7.4545390360495e-05    1.14045348483482e-05    2.89940278772243e-05
187                       2                      14                2.828427    1.48472407060242e-06    2.43941251862097e-07    1.10970860398735e-06
188                       2                      14                       0    4.25452470856294e-07     7.4163803285506e-08    4.65836212146248e-07
189                       4                      12                5.656854    7.92163323340206e-05    3.41888806023177e-05    4.14746655273804e-05
190                       4                      12                2.828427    3.43568368552906e-05    1.54607385162988e-05    3.40401027445409e-05
191                       4                      12                       0    2.24406537475045e-07    1.04182367115787e-07    3.20017792041013e-07
192                       6                      14                5.656854     0.00812372386259519     0.00207986378860319     0.00636123029845558
193                       6                      14                2.828427    6.23790854503281e-05    1.73444465518398e-05    9.06584402059521e-05
194                       6                      14                       0    7.86656442465402e-06    2.35938114867134e-06    1.59511024048332e-05
195                       8                      12                5.656854     0.00203427075335024     0.00208869276250786     0.00274566430378037
196                       8                      12                2.828427    0.000414111625930157    0.000410134471268571    0.000981374340831648
197                       8                      12                       0    1.49338208965907e-06    1.41508883584664e-06    4.63723999566554e-06
198                      10                      14                5.656854     0.00368616964040635     -0.0329724513250724      -0.236673875853256
199                      10                      14                2.828427    0.000169732538776364    0.000146898240111707    0.000890429724829514
200                      10                      14                       0    1.63599442351607e-05    1.31347469959027e-05    9.85522841179395e-05
201                      12                      12                5.656854     0.00119322342916012     0.00512330081136094       0.007133730773201