ITEM: TIMESTEP
0
ITEM: NUMBER OF ATOMS
422
ITEM: BOX BOUNDS ff ff ff
0.0000000000000000e+00 2.3200000000000000e+02
0.0000000000000000e+00 2.3200000000000000e+02
0.0000000000000000e+00 2.3200000000000000e+02
ITEM: ATOMS id xu yu zu fx fy fz
1        113.156707382082        115.994296003921        108.667629188244      -0.836819378632818       -1.69769214022232      -0.360919010939185
2        118.847103751077         116.00884515264        108.676472911006       -1.59468249934828       -2.15444777874503      -0.244954500343628
3         117.39392170155        115.979371820398        108.648430707633        1.05642619674516       0.370758203891229       0.263666837696832
4        114.583366557341        115.997246461327        108.669148518392      -0.963367056669409      -0.579233690884536       -0.12974341268287
5        116.683979066742        114.732628749137        108.639757898973        1.35391881908648         1.0334913269023       0.317731638578879
6        115.272597674004        114.746063291848        108.654624683136       -1.83879141249941       -1.80167004193744      -0.354953034303509
7        115.276175668999        117.226856009359        108.660687803971        1.09462969427961        1.42100607503913       0.371241261792569
8        116.703700419413        117.229564824574        108.661964377992      -0.833770174442197      -0.976642363927922      -0.136341513796996
9        114.472186810517        113.502876130935        108.611283889759        1.48808766910053        2.17751504809165       0.408951804239257
10        117.460059909738        113.550907830893        108.656360427007       -0.37077124839192       -0.98521224414644     -0.0464747855440752
11        114.553061295696        118.461543396816        108.697051744923       -1.30454836701162       -1.19552989025537     -0.0356810163313121
12        117.454511598099        118.423152301623        108.655705487444       -1.82708818302098       -1.56731017009844      -0.196430048406003
13        113.078146011131        113.513279338793        108.607688750896        3.53710185229091        5.02005702342255       0.468263064722643
14        113.149380624954        118.431486579115         108.68378581684       -1.93644853477516       -2.55373830003376      -0.442627812848822
15        118.862854972506         113.58007903991        108.668740746338       0.724933985878355        1.61497945286056       0.447447438054011
16        118.796873610166         118.36107030925         108.60762183867        4.67395530811416        5.20296955766131       0.964031171716422
17        112.395379078698        117.162903184199        108.625437240559        4.28461824494399        4.38890186530958       0.673564724586428
18        112.432228999511        114.774279755834        108.659853940771      -0.391678686766481       -1.50464136403081      -0.354691376438255
19        119.586487409244        114.818293324824        108.696720212552       -2.83242977529503       -2.28711363895084      -0.405303587645237
20        119.523324588992        117.180603856923        108.635990613964        2.24107601055915        2.03028562578291       0.483930126851412
21        120.964797038219        114.834097101417        108.666516015595        1.46503095012478        1.10537191600108       0.362560877389945
22         120.97795629855        117.183453165875        108.682018936299       -5.65377118562657       -6.29098892836673      -0.486906341246986
23        111.029406263928        114.823239420259        108.665634590767        1.29862422777968        1.96356356917983       0.463543337248282
24        111.009062883403        117.139092842531        108.647634870258        2.66019756267661        3.26101895576601       0.305249920357767
25        121.609090194899        116.014360812277        108.679217734159       0.351880832070769      -0.741564343704659      0.0358361356027456
26        110.427745232794        116.021804636986        108.697908658322       -3.96602422895085       -3.89018557745463      -0.312608898869373
27        121.566809576989        118.143535672091        108.614467531165        3.30768341566835        5.32173212319521       0.156409854709473
28        121.601381272027        113.785900555021        108.644632985326     -0.0262361632626214       0.576741406455051       0.187742551339577
29        110.382371611567        118.197182348136         108.67941086084      -0.439296576021543       -1.22867347660394      0.0453707318391241
30        110.381120655131          113.8037245816        108.673753664871       -1.00145638521882      -0.411456670881547       0.124830822047018
31        112.649124024518        112.664712002368        108.706111202275       -2.45902039631045       -3.23241530660751      0.0331537373034934
32        112.584643245407        119.342023066017        108.648393744807       0.227179622043264       0.577306011808184       0.150658621498254
33        119.427572441869        112.669522643548        108.704112908917      -0.222143081083329      -0.572755347437898      -0.104491992635039
34        119.415412101757        119.399154155003        108.698715894614        -2.2037221308258       -3.23324698144587      -0.587827176016352
35        114.941611060676        112.548285051689         108.63617848781      -0.049582652369494      -0.420711896858244     -0.0637815740792205
36        115.002458986966        119.448756024425        108.703887878284      -0.542011156230479      -0.220599111049159      0.0584691190407953
37        116.999059274666        112.552092260384        108.637921350645       0.535197832717952       0.634460916504813      0.0738227416679771
38         116.96699477683        119.359650809883        108.612718319299       0.964173512321261       0.823414530034167        0.10297212841536
39                     100                     100              105.656854        0.21219632984844        0.21398658206982      -0.975682328175125
40                     100                     100              102.828427       0.431986443666953       0.430422013890325   -0.000374765382496353
41                     100                     100                     100       0.212168606461858        0.21344598053629       0.976316296443707
42                     102                     102              105.656854      -0.344535457601041      -0.347593768313262      -0.277976056259366
43                     102                     102              102.828427     -0.0508604126739465     -0.0483062338614004    0.000685194581091179
44                     102                     102                     100      -0.344517821327868      -0.346481464373875        0.27685558226709
45                     104                     100              105.656854      0.0958064348939014       0.960117003667516      -0.808938946720475
46                     104                     100              102.828427     -0.0637847184896603       0.726661690999161   -0.000278823434833329
47                     104                     100                     100      0.0961722031841464       0.959473306301405       0.809377906887741
48                     106                     102              105.656854      -0.149133983077819      -0.514979831642137      -0.381461864604168
49                     106                     102              102.828427       0.142235279290125      0.0665855256171459     0.00038584336886395
50                     106                     102                     100       -0.15014059494626      -0.513791003006509       0.380894256376489
51                     108                     100              105.656854       0.109557322920864        1.06012836831975      -0.801909475246706
52                     108                     100              102.828427      -0.111550709708788       0.639839239159769    0.000243455378233962
53                     108                     100                     100       0.110606193376721        1.06006079621983       0.801450471747728
54                     110                     102              105.656854       -0.14313320054645      -0.581903800803924      -0.373832183031731
55                     110                     102              102.828427       0.147919355720905       0.134826859945788   -0.000937646518723254
56                     110                     102                     100       -0.14552422630848       -0.58262510710444       0.375451711917929
57                     112                     100              105.656854       0.131693330511037        1.10844754506123      -0.810685861422295
58                     112                     100              102.828427      -0.135482522963785        0.58942726846455     0.00114934636638766
59                     112                     100                     100       0.132855474315836        1.10987838324539       0.808727085200285
60                     114                     102              105.656854      -0.163848690734799      -0.618801736369771      -0.361350129242557
61                     114                     102              102.828427       0.168788098104776       0.174841597767686    -0.00260614079266326
62                     114                     102                     100      -0.165313362547676      -0.622705163317515       0.365671381627096
63                     116                     100              105.656854       0.166631919632543        1.14395731508358      -0.821248912207826
64                     116                     100              102.828427      -0.170816077055209       0.552225395692455     0.00164617971544518
65                     116                     100                     100       0.166626006847716        1.14631253457908        0.81847618623492
66                     118                     102              105.656854      -0.209581391464847      -0.651081015036588      -0.347908407921132
67                     118                     102              102.828427       0.214432110035109       0.208158602761073    -0.00259192519219115
68                     118                     102                     100      -0.208089220310759      -0.654948214840919       0.352214210498417
69                     120                     100              105.656854       0.223241258241245        1.18260728023659      -0.835268414287664
70                     120                     100              102.828427      -0.228665235896129       0.512846372376718     0.00114249767321903
71                     120                     100                     100        0.22207912882481        1.18401659191845       0.833314341584624
72                     122                     102              105.656854      -0.288754867159625      -0.688236003696388      -0.330273603237769
73                     122                     102              102.828427       0.293558098493997       0.244541960813316   -0.000917109616603412
74                     122                     102                     100       -0.28637882982179      -0.688903732831244       0.331877531550668
75                     124                     100              105.656854       0.326319031206184         1.2368645531013      -0.852133745703851
76                     124                     100              102.828427      -0.322967837893083       0.459360879314119    0.000242002514849616
77                     124                     100                     100        0.32528349425279        1.23678229493421       0.851667993427391
78                     126                     102              105.656854      -0.461581456204404      -0.727906723848705      -0.331989362295233
79                     126                     102              102.828427       0.397141286233988       0.281890704174666    0.000387824374091789
80                     126                     102                     100      -0.460601705741428      -0.726699059748743       0.331435254483228
81                     128                     100              105.656854       0.708189299188469        1.34082711696274      -0.754768894849289
82                     128                     100              102.828427      -0.280854260076221       0.395973680634636   -0.000269946726102043
83                     128                     100                     100       0.707835025375802        1.34018507020448       0.755185124945518
84                     130                     102              105.656854       -1.34048775055083      -0.708827702841627      -0.755376970657754
85                     130                     102              102.828427      -0.395961233681781       0.281106027863984    0.000670532523568404
86                     130                     102                     100       -1.34051849680983      -0.707723091849299       0.754291918555722
87                     100                     104              105.656854       0.959133623202426       0.100026872591944      -0.808422133384456
88                     100                     104              102.828427       0.727637304524679     -0.0672142615921769    -0.00104098617654933
89                     100                     104                     100       0.958568464601207       0.098712708227512       0.810146488902801
90                     102                     106              105.656854      -0.513855509760452       -0.15706733146559      -0.382800641212401
91                     102                     106              102.828427      0.0652716523409641       0.148149251738037     0.00215271002015235
92                     102                     106                     100      -0.512499662123391      -0.154093939306394       0.379336379363242
93                     104                     104              105.656854       0.247246349519551        0.25292846811152      -0.388497270537336
94                     104                     104              102.828427       -0.18000985480907      -0.184419152814458    -0.00132445726325084
95                     104                     104                     100       0.247355727749546       0.250455857001472       0.390595958051462
96                     106                     106              105.656854      -0.233205084207709      -0.245036176974474      -0.504726415246994
97                     106                     106              102.828427       0.225291844088427       0.233356952783713     0.00265511542417014
98                     106                     106                     100      -0.234140462495153      -0.239092075268964       0.500492824748993
99                     108                     104              105.656854        0.17303059592416       0.338691339738613      -0.375211490733747
100                     108                     104              102.828427      -0.177101481941976      -0.268766609967618   -0.000302634963217385
101                     108                     104                     100       0.176052096510385       0.336709163846878       0.375591406623118
102                     110                     106              105.656854      -0.181243768969098      -0.293119784793576      -0.490076621777659
103                     110                     106              102.828427       0.191814403403721       0.285527538845141    -0.00107429527051164
104                     110                     106                     100      -0.190739728880886       -0.29172267625069        0.49192863741929
105                     112                     104              105.656854       0.166661227256829       0.379244640902036      -0.390947645585875
106                     112                     104              102.828427      -0.173963728894827      -0.314391089870466     0.00306156737739059
107                     112                     104                     100       0.171664009756878       0.383379322282137       0.385851708302811
108                     114                     106              105.656854      -0.187754139998338      -0.307078358029077      -0.466697388694874
109                     114                     106              102.828427        0.19734343252863       0.311538259182483    -0.00859544680812858
110                     114                     106                     100      -0.195082919496155       -0.32222675699326       0.481535179411113
111                     116                     104              105.656854        0.19833453179629       0.405040376113348      -0.406498642044451
112                     116                     104              102.828427      -0.203525684421999      -0.344074524775486     0.00529154273677341
113                     116                     104                     100       0.198282234618712       0.413904392342311       0.397775086640103
114                     118                     106              105.656854      -0.241910117695354      -0.329658440794453      -0.450832202130098
115                     118                     106              102.828427       0.243853931891355       0.334670686576518     -0.0084932141636792
116                     118                     106                     100      -0.234379902301411      -0.344543707106468       0.465531105279284
117                     120                     104              105.656854       0.260893546571612       0.436178038938712      -0.421688867028575
118                     120                     104              102.828427      -0.265173905619175      -0.373115043807631     0.00300168720066165
119                     120                     104                     100       0.255873605947376       0.440172102073649        0.41665740710002
120                     122                     106              105.656854      -0.319014613322494      -0.363665689949751      -0.438265732405201
121                     122                     106              102.828427       0.320187083476658       0.358214652266513   -0.000924311939721732
122                     122                     106                     100      -0.309602477812648       -0.36194280421241       0.439977672937363
123                     124                     104              105.656854       0.368159220263011       0.464258536992112      -0.438587422404185
124                     124                     104              102.828427      -0.362540954661987      -0.398215131528676    -0.00034273553538834
125                     124                     104                     100       0.365194115795338       0.462184015119502        0.43899124746543
126                     126                     106              105.656854      -0.465828378055058      -0.369657619868253      -0.441556246244993
127                     126                     106              102.828427       0.400892935347971       0.361883190607093     0.00270771464627654
128                     126                     106                     100      -0.465014353328464      -0.363605986099449       0.437312760617396
129                     128                     104              105.656854        0.72781442370301       0.462557635180396      -0.330703868506426
130                     128                     104              102.828427       -0.28248993796162      -0.397242897086548    -0.00132155927562189
131                     128                     104                     100        0.72774571762796        0.46007297031372       0.332771880275027
132                     130                     106              105.656854       -1.23637407971875      -0.328420647960057      -0.853556739290145
133                     130                     106              102.828427      -0.458968795909609       0.323995274180425     0.00213576311402543
134                     130                     106                     100       -1.23777177891713      -0.325456513291747       0.850152580276488
135                     100                     108              105.656854        1.06302098947353       0.116608817385848      -0.799940040031799
136                     100                     108              102.828427       0.638206677578717      -0.116880966068614    -0.00245440143638267
137                     100                     108                     100        1.06065007128184        0.11421134033622       0.803934406698363
138                     102                     110              105.656854      -0.589895197981603      -0.155523768708891      -0.379124498924783
139                     102                     110              102.828427       0.138673599872115       0.156240965462804     0.00528995821287063
140                     102                     110                     100      -0.583781893896848      -0.150472844257557       0.370598493453784
141                     104                     108              105.656854       0.338337725074509       0.189452504712091      -0.371048378829874
142                     104                     108              102.828427      -0.267084273063082      -0.187640194150533    -0.00480638453362241
143                     104                     108                     100       0.334782933819531       0.182106053375717       0.378827394676386
144                     106                     110              105.656854      -0.298147632163989      -0.218399236195858      -0.506450738624413
145                     106                     110              102.828427       0.283215273837557       0.210049787133581      0.0111275870535314
146                     106                     110                     100      -0.288558309203063      -0.199245757617716       0.485443180345028
147                     108                     108              105.656854       0.221993241428595       0.250713682855575      -0.358576242286169
148                     108                     108              102.828427      -0.228897538090523      -0.244150642845943    -0.00495166647178682
149                     108                     108                     100       0.228047696313849       0.235720774501367       0.368094611860811
150                     110                     110              105.656854      -0.180876908645689      -0.256743060221898      -0.491209986025706
151                     110                     110              102.828427       0.216179568122685       0.242764087142822     0.00486570686680971
152                     110                     110                     100      -0.221863019522705      -0.232368915532903       0.475271111448973
153                     112                     108              105.656854       0.175583805030167       0.256923040822882      -0.393163224660553
154                     112                     108              102.828427      -0.198181280807192      -0.269301909243492      0.0080737686359124
155                     112                     108                     100       0.201325472264698        0.26725681043489       0.378063192125051
156                     114                     110              105.656854      -0.177444674545081      -0.185106309592822      -0.385280653628255
157                     114                     110              102.828427       0.209307278223253       0.246516933910849     -0.0264916092010869
158                     114                     110                     100      -0.213619461240845      -0.249309911902068       0.469719580587886
159                     116                     108              105.656854       0.220797982201879       0.250628293959035       -0.42561730790353
160                     116                     108              102.828427      -0.226479207508521      -0.282143350582339      0.0188761813331404
161                     116                     108                     100       0.220407434632869       0.286192893835845       0.389106618453749
162                     118                     110              105.656854      -0.287203593804043      -0.198365074628537      -0.369531912534759
163                     118                     110              102.828427       0.267153178939844       0.258444257364311     -0.0259137434207509
164                     118                     110                     100      -0.249640975589294      -0.260500184656468        0.45205156689742
165                     120                     108              105.656854       0.299789111099416       0.291680933371614      -0.427795029537328
166                     120                     108              102.828427      -0.290377655750765      -0.304625642962322     0.00767927309763003
167                     120                     108                     100       0.273979309648453        0.30114549920987       0.413160944918962
168                     122                     110              105.656854      -0.355298874969144      -0.293011620668478      -0.435383618404964
169                     122                     110              102.828427       0.333428130051176       0.278450434504498     0.00577466442967749
170                     122                     110                     100      -0.314968273836891      -0.266282237479633       0.418280216842861
171                     124                     108              105.656854       0.374518488779847       0.321187662552372      -0.430995075276308
172                     124                     108              102.828427      -0.367860424537237      -0.316649856995603    -0.00521603987464306
173                     124                     108                     100       0.368803030017402       0.305663094981144       0.440703868741499
174                     126                     110              105.656854      -0.436364441201071      -0.274986263914511      -0.434930927708102
175                     126                     110              102.828427       0.379859874403041       0.268277673210569      0.0114129277713176
176                     126                     110                     100      -0.446616687222352      -0.255406140976714       0.413811532699024
177                     128                     108              105.656854       0.687825489257867       0.293797877034959      -0.326463543771409
178                     128                     108              102.828427      -0.246398451726322      -0.295390024988519    -0.00484125977854961
179                     128                     108                     100       0.691543233986805       0.286394731904161       0.334199063834662
180                     130                     110              105.656854       -1.17921111375185      -0.227933197057331      -0.838944906269984
181                     130                     110              102.828427      -0.513115179800976       0.231081043940144     0.00527208345488541
182                     130                     110                     100       -1.18544226218634      -0.222915673192811       0.830541832798127
183                     100                     112              105.656854        1.11833445906252       0.138061833665155      -0.806404869526475
184                     100                     112              102.828427       0.583423237499835      -0.140054647540324    -0.00437781047250511
185                     100                     112                     100         1.1127639317781       0.135757738583227        0.81347717938919
186                     102                     114              105.656854      -0.638845631091381      -0.170378055813904      -0.371461782856548
187                     102                     114              102.828427       0.184993022959355        0.17298526280954     0.00855465448268931
188                     102                     114                     100      -0.626611272026508      -0.167671947842698       0.357535850670794
189                     104                     112              105.656854       0.401242399424135       0.187090318822018      -0.374760610912613
190                     104                     112              102.828427      -0.322161482686587      -0.185435423340571     -0.0116197317092738
191                     104                     112                     100       0.384935419273583        0.17747249954513       0.394939464067164
192                     106                     114              105.656854      -0.354783709651347       -0.20791567564913      -0.516309440267122
193                     106                     114              102.828427       0.321754321132117       0.207571056584334      0.0225987805521749
194                     106                     114                     100      -0.322597332031548      -0.199589390721729       0.466823090897642
195                     108                     112              105.656854        0.28244801753928       0.254749614421075      -0.309633673206312
196                     108                     112              102.828427      -0.262480753009178      -0.222720403911293     -0.0210744226015718
197                     108                     112                     100       0.261505761623926       0.210810623884511       0.389074552279971
198                     110                     114              105.656854      -0.156693089759255      -0.191854001104225      -0.724216261412898
199                     110                     114              102.828427       0.224511531939032       0.225276564365309      0.0148938074789105
200                     110                     114                     100      -0.239854562430979      -0.219938799024138       0.456768543550334
201                     112                     112              105.656854      0.0991910923364301        0.22866236767706      -0.424998525665429