ITEM: TIMESTEP
0
ITEM: NUMBER OF ATOMS
422
ITEM: BOX BOUNDS ff ff ff
0.0000000000000000e+00 2.3200000000000000e+02
0.0000000000000000e+00 2.3200000000000000e+02
0.0000000000000000e+00 2.3200000000000000e+02
ITEM: ATOMS id xu yu zu fx fy fz
1        111.245932193839        115.983520815677              108.656854     0.00835674224677763   -0.000982153777716863   -0.000583353970078561
2        116.927484840071        115.989226241634              108.656854     -0.0120059679871898    -0.00104495143049367     0.00278627591865543
3        115.502344993917        115.987795112765              108.656854     0.00441748703819544     0.00302638804295718     0.00155233628193976
4        112.671072038949        115.984951942936              108.656854    0.000787791805248517     0.00312254247146648     0.00333867678243224
5        114.801075167769        114.749724850164              108.656854      0.0297355160931708      0.0294039879855775      0.0855732240862613
6        113.374826990867        114.748292608712              108.656854     -0.0199141816578224      0.0340174427235387       0.102688323660054
7        113.372341865028        117.223022205388              108.656854     -0.0192188160167022     -0.0264603863596523      0.0989559534297784
8        114.798590041422        117.224454446583              108.656854      0.0289920589766295     -0.0219127269598806      0.0830573556592207
9        112.617756920757        113.548446241175              108.656854     -0.0368448574698088     -0.0203318656185413      0.0445520100013153
10        115.560553482731        113.551401403886              108.656854       0.010439479960488     -0.0181167554833073      0.0299554568716532
11        112.612863550773        118.421345651893              108.656854      -0.037256278192208    0.000965651388504976      0.0469831622498772
12        115.555660110655        118.424300814179              108.656854      0.0111547435007966   -0.000893079726802484      0.0328322022983228
13        111.227311260236        113.562444587898              108.656854      0.0508914926058367     -0.0231224074445559      0.0617630773210835
14        111.222448808114        118.404554762274              108.656854      0.0512997604107353     0.00670904585322195      0.0653262914814658
15        116.950968226168        113.568192293572              108.656854     -0.0710437652963755      -0.026602967028515      0.0867191772368234
16        116.946105771496         118.41030247058              108.656854     -0.0710559504252782       0.010145018972594      0.0887547753214856
17        110.526795838139         117.19431994364              108.656854      0.0243364436343177     -0.0236565389356155       0.103988169089018
18         110.52922905874        114.771279815063              108.656854       0.025074889697473      0.0326927850678304       0.108293355917167
19        117.646621196692        114.778427112272              108.656854    -0.00955145399116371      0.0363961551619048       0.118341057942062
20        117.644187975028         117.20146724296              108.656854    -0.00942527688657983     -0.0271833569588876       0.115125939166774
21        119.055135022624        114.824435085822              108.656854      0.0982756244599616       0.125472690180152      0.0400800338395258
22        119.052791362251        117.158288229576              108.656854      0.0961517437200157     -0.0211313371268211      0.0352568787540249
23        109.120625673161        114.814458829493              108.656854      0.0178438206676794       0.128680801294575      0.0688704778880062
24        109.118282013145        117.148311972274              108.656854      0.0208989500599744      -0.023974149086922      0.0630483263851135
25        119.686726460739        115.991997078118              108.656854     -0.0287168682876801     -0.0274100392977263     -0.0448082167843794
26        108.486690574472        115.980749978664              108.656854     -0.0422882068872843     -0.0270059120885647      -0.055319089950019
27        119.709196045824        118.185922140926              108.656854      -0.100823336901444     -0.0526694825228941      0.0259739926607797
28          119.7136022867        113.798121569695              108.656854      -0.106078293597769     -0.0760795583747376      0.0144505796410335
29        108.459814750727        118.174625487296              108.656854     -0.0609075274740601     -0.0580150925252594     0.00520730744581542
30         108.46422099026         113.78682491673              108.656854     -0.0564635113586601     -0.0726650243865761    -0.00637723559422122
31        110.699866822243        112.615454800093              108.656854     -0.0402688818389181      0.0238373062969627     0.00109336956764601
32        110.693103500599        119.350483321209              108.656854     -0.0387821019806077      0.0178341502300056    -0.00493207887100692
33        117.480313532952        112.622263734631              108.656854        0.07994302649718      0.0249246584377133    -0.00731077616365113
34        117.473550207142        119.357292260389              108.656854       0.078596794679659      0.0170031393908575     -0.0129484715491121
35        113.062286572867         112.56896056388              108.656854      0.0233438214478567      0.0142805642581828   -2.65040987685642e-05
36        113.055425108682        119.401722146141              108.656854      0.0235273371343426      0.0133763967837152    -0.00385575868822017
37        115.117991924022        112.571024909739              108.656854     0.00299457362030198      0.0149970292820523     0.00102125076845121
38        115.111130457531        119.403786490585              108.656854      0.0027394257417992      0.0126940290110146    -0.00298158784664354
39                     100                     100              105.656854       0.211722647447478       0.214050896546312      -0.975675378290273
40                     100                     100              102.828427       0.432400257048527       0.430409490926316   -0.000369490717656101
41                     100                     100                     100       0.211837050387252        0.21341292776672       0.976284951756182
42                     102                     102              105.656854      -0.343593257936967      -0.347671337975355       -0.27797889883293
43                     102                     102              102.828427     -0.0516350479131335     -0.0483428732488035    0.000645442559339862
44                     102                     102                     100      -0.343950325487284      -0.346370434239077       0.276955411755964
45                     104                     100              105.656854      0.0950750551226606       0.959641901316904      -0.809047871395552
46                     104                     100              102.828427     -0.0632100518776967       0.727076945397504   -9.39436665376432e-05
47                     104                     100                     100      0.0957742529172938       0.959142215150462       0.809161941054109
48                     106                     102              105.656854      -0.147790417917495      -0.513725318260057      -0.381124455697556
49                     106                     102              102.828427       0.141296635586985      0.0656115439736466   -0.000118093158570813
50                     106                     102                     100      -0.149586787049025      -0.513121452146449       0.381399832178896
51                     108                     100              105.656854       0.109238091237251        1.05877617015114      -0.802202842850791
52                     108                     100              102.828427       -0.11135008840471       0.640859359008834    0.000679523989858919
53                     108                     100                     100       0.110517093328687        1.05938056259602       0.801020027255987
54                     110                     102              105.656854      -0.143359136779469      -0.579140723038452      -0.373121810494941
55                     110                     102              102.828427       0.148181682086063        0.13297867104242    -0.00186719490401287
56                     110                     102                     100      -0.145782397170452       -0.58155805035672       0.376241999316707
57                     112                     100              105.656854       0.132659841191445        1.10715585498407      -0.810947597983287
58                     112                     100              102.828427       -0.13624924030051       0.590362498389713     0.00153525649931668
59                     112                     100                     100       0.133407941810444        1.10928853941359       0.808362811295085
60                     114                     102              105.656854         -0.166440779711      -0.617651242602528      -0.361098801771798
61                     114                     102              102.828427        0.17066379267042       0.174064982308714    -0.00296873401983968
62                     114                     102                     100      -0.166517408247738      -0.622254267263698       0.365990435239403
63                     116                     100              105.656854       0.168114628747332        1.14417880981825      -0.821153289241788
64                     116                     100              102.828427      -0.171965799092183       0.552103096584505     0.00156144788898459
65                     116                     100                     100       0.167427603897347         1.1463599936667       0.818525840796032
66                     118                     102              105.656854      -0.211400800296496      -0.652958137103614       -0.34848355208432
67                     118                     102              102.828427       0.215810006565729       0.209312529984525    -0.00195481201531593
68                     118                     102                     100      -0.209027019226288      -0.655541622982297       0.351745001197265
69                     120                     100              105.656854       0.223709180334844        1.18385354484113      -0.834932150402128
70                     120                     100              102.828427      -0.229083858226067       0.511979487554112    0.000727567145249233
71                     120                     100                     100        0.22242547557924        1.18453679569235       0.833670075462645
72                     122                     102              105.656854      -0.288192915418405      -0.690181518590209      -0.330876128659129
73                     122                     102              102.828427        0.29328436652104       0.245860341402386   -0.000189168040884338
74                     122                     102                     100      -0.286327087135399      -0.689679443831499       0.331268410745977
75                     124                     100              105.656854       0.325854781403133        1.23766848964682       -0.85189676390487
76                     124                     100              102.828427      -0.322657070920111       0.458747314747208   -6.47637930548388e-05
77                     124                     100                     100       0.325121647759723        1.23720126635932       0.851960976679524
78                     126                     102              105.656854      -0.460547285413012       -0.72829231763114      -0.332170539533834
79                     126                     102              102.828427       0.396391112532723       0.282246925188778    0.000625564550322271
80                     126                     102                     100      -0.460139166853307      -0.726993606675645       0.331182615721225
81                     128                     100              105.656854       0.707693216117201        1.34094656644628      -0.754693815227449
82                     128                     100              102.828427      -0.280460559820838       0.395849139024268   -0.000361653141220413
83                     128                     100                     100       0.707558808020349        1.34030700866514       0.755288577215305
84                     130                     102              105.656854       -1.34000090577006      -0.708560290278433      -0.755367261533858
85                     130                     102              102.828427       -0.39637906370249       0.280954396540516    0.000642578622069723
86                     130                     102                     100       -1.34019482178208      -0.707677222631399       0.754293381261237
87                     100                     104              105.656854       0.958458314762407       0.100765595762185      -0.808228628892055
88                     100                     104              102.828427       0.728284539213732     -0.0676402485141682    -0.00125338112934734
89                     100                     104                     100       0.958021167984601      0.0988802919380483       0.810258751018091
90                     102                     106              105.656854      -0.512404949914937      -0.158789312466848      -0.383384865301026
91                     102                     106              102.828427      0.0639112361075685        0.14891961328049     0.00264278520415054
92                     102                     106                     100      -0.511461771950323      -0.154280810298367       0.379189784747703
93                     104                     104              105.656854       0.245144615477512       0.252913739172407      -0.388544980104814
94                     104                     104              102.828427       -0.17845862333513      -0.184164023431522    -0.00112700123615871
95                     104                     104                     100        0.24637225942903       0.250130611879735       0.390279434099754
96                     106                     106              105.656854      -0.227802779876802      -0.244121581290873      -0.504234572120788
97                     106                     106              102.828427        0.22205945588701        0.23223137792945     0.00170906294987835
98                     106                     106                     100      -0.232525999064302      -0.238230075470247        0.50148400894435
99                     108                     104              105.656854       0.170745537465902       0.335086243836453       -0.37638400069759
100                     108                     104              102.828427       -0.17581169352533      -0.266447571153566     0.00113904956478509
101                     108                     104                     100       0.175486934713602       0.335413563338152       0.374422854916051
102                     110                     106              105.656854      -0.179464276561227      -0.282694498617032      -0.485760554900273
103                     110                     106              102.828427       0.191367571789666       0.280522286581046    -0.00500214372160929
104                     110                     106                     100      -0.190881518243143      -0.289573946260167       0.494347873066115
105                     112                     104              105.656854       0.169460202989829       0.374433581517766       -0.39245050945142
106                     112                     104              102.828427      -0.175908506071256      -0.311637555700362      0.0047387202655631
107                     112                     104                     100       0.172876016871776       0.382038636012704       0.384656203140595
108                     114                     106              105.656854      -0.197647714457267      -0.302607927769636      -0.464970540549794
109                     114                     106              102.828427       0.203075803080959       0.309353236436722     -0.0102629637309395
110                     114                     106                     100       -0.19801924321821      -0.321310340031423       0.482557090703099
111                     116                     104              105.656854       0.203387635244597       0.406290729379123      -0.405992930583893
112                     116                     104              102.828427      -0.206874890142192      -0.344690718417225     0.00485537122005311
113                     116                     104                     100        0.20023351151138       0.414139875877905       0.398010548389996
114                     118                     106              105.656854      -0.247693491460004      -0.338269266527753      -0.454587176338452
115                     118                     106              102.828427       0.247435909666654       0.338517535219918    -0.00539613567668406
116                     118                     106                     100      -0.236408310501015      -0.346016410905644       0.463851770759894
117                     120                     104              105.656854        0.26121651347852       0.440781456608774      -0.420067473711114
118                     120                     104              102.828427      -0.265664746173571      -0.375724607085082     0.00131645436105314
119                     120                     104                     100       0.256374217177159       0.441430689172141       0.417818677744748
120                     122                     106              105.656854       -0.31402046415015      -0.369059880659198      -0.440751585669672
121                     122                     106              102.828427       0.317917935022824       0.361197193728363     0.00151105079012896
122                     122                     106                     100      -0.308856327484913      -0.363400232309257       0.438321060308201
123                     124                     104              105.656854       0.365860340989318       0.465623520859812      -0.438008418398159
124                     124                     104              102.828427      -0.361120722929405      -0.399257940575391    -0.00106843281069982
125                     124                     104                     100        0.36448793312982       0.462872896914459       0.439645281717687
126                     126                     106              105.656854      -0.463000417541876      -0.368419487636544      -0.441282189822504
127                     126                     106              102.828427       0.398874333321633        0.36164564090347     0.00265475771162809
128                     126                     106                     100      -0.463833908348366      -0.363782576373616       0.437070946119553
129                     128                     104              105.656854       0.726728196181499       0.461997506569648      -0.330772743373056
130                     128                     104              102.828427      -0.281610552164504      -0.397010682098195    -0.00125965968081485
131                     128                     104                     100        0.72713035914054       0.460065067950716       0.332808791535398
132                     130                     106              105.656854       -1.23600712125505       -0.32710226052018      -0.853173205501504
133                     130                     106              102.828427      -0.459470398077216       0.323256082015135     0.00168286312024537
134                     130                     106                     100       -1.23728237071757      -0.325160534813008       0.850420570950665
135                     100                     108              105.656854        1.06321400368876       0.118935078139607      -0.798891861802357
136                     100                     108              102.828427       0.638659083450327      -0.118135158227787    -0.00353159493472757
137                     100                     108                     100         1.0599819495807       0.114717267080955       0.804549286251878
138                     102                     110              105.656854      -0.591354411549236      -0.160971824028833      -0.382920592282539
139                     102                     110              102.828427       0.137570020259545       0.158383786937387     0.00806784316451052
140                     102                     110                     100      -0.582343026647649      -0.151061150393498       0.369551462528295
141                     104                     108              105.656854       0.334568679023299        0.19405265290573      -0.368859244889356
142                     104                     108              102.828427      -0.263830292580948      -0.188874033192425    -0.00588516993931184
143                     104                     108                     100       0.332761556548229       0.182138117960259       0.378804540206537
144                     106                     110              105.656854      -0.283080585331011      -0.230535771513367      -0.515803531479271
145                     106                     110              102.828427       0.274674056657443        0.21086659826037       0.012330212126561
146                     106                     110                     100      -0.284917769490745      -0.198637620077991        0.48666997614889
147                     108                     108              105.656854       0.206722380620868       0.243202808349784      -0.363225187963652
148                     108                     108              102.828427      -0.222845013877783      -0.240001379353333    -0.00049486005164517
149                     108                     108                     100       0.226003133904542        0.23381055840535       0.365264929432076
150                     110                     110              105.656854      -0.156481298682125      -0.207345740036001      -0.444548284496744
151                     110                     110              102.828427       0.211541203678444        0.23310428764178     -0.0107585607538319
152                     110                     110                     100      -0.221315965173116      -0.229484693841199       0.481429758175388
153                     112                     108              105.656854       0.186321782519283       0.235786676276707      -0.405250454684076
154                     112                     108              102.828427      -0.203344876813356      -0.261871905666837      0.0160137935030709
155                     112                     108                     100         0.2038473667164       0.264792887227965       0.374369943681871
156                     114                     110              105.656854       -0.21825396965295      -0.172217425322925      -0.373420663702482
157                     114                     110              102.828427       0.225222046980649       0.242593993547763     -0.0330218049459793
158                     114                     110                     100      -0.219827269008355       -0.24811667816568       0.472381081881701
159                     116                     108              105.656854       0.241109431912131       0.256612239884894      -0.421937929025206
160                     116                     108              102.828427      -0.236596747427428      -0.284247753642863       0.016562683517748
161                     116                     108                     100        0.22494636615803       0.286810503095049       0.390025679146351
162                     118                     110              105.656854      -0.317328825329023      -0.235666976740814       -0.40482280976709
163                     118                     110              102.828427       0.276326663169107       0.266714062450854     -0.0124261574405682
164                     118                     110                     100      -0.253536399289977      -0.262771862521188       0.447246520606757
165                     120                     108              105.656854       0.294756465295937       0.311546588526294      -0.415960251680428
166                     120                     108              102.828427       -0.28949791491534      -0.311605198480711    0.000193854592753438
167                     120                     108                     100       0.274363497579712       0.303530547408407       0.416678763436703
168                     122                     110              105.656854      -0.316629205748322      -0.300728596598337        -0.4437993152075
169                     122                     110              102.828427       0.323346827307313       0.282592013174633      0.0120460972767193
170                     122                     110                     100      -0.312362672943294       -0.26812740743578       0.414624925210195
171                     124                     108              105.656854       0.365339770824862        0.31870413207784      -0.431789231776142
172                     124                     108              102.828427      -0.362955501715022      -0.317140666524832    -0.00588091262849873
173                     124                     108                     100        0.36671206225325       0.306415135198195       0.441794284861004
174                     126                     110              105.656854      -0.435172878799543      -0.265752984123074      -0.428107396861873
175                     126                     110              102.828427       0.376447905644509       0.266118578505984     0.00831943167668601
176                     126                     110                     100      -0.444367704519185      -0.255236524905852       0.414239268750203
177                     128                     108              105.656854       0.687221540686932       0.290462347932997      -0.327934903183886
178                     128                     108              102.828427      -0.245212327037779      -0.294002288803462    -0.00362568443865478
179                     128                     108                     100       0.690500520434953       0.286035747026818       0.333739467177257
180                     130                     110              105.656854       -1.18089147572177      -0.225182475177228      -0.837203047337842
181                     130                     110              102.828427      -0.512969196832211       0.229703740559523     0.00354682274165901
182                     130                     110                     100         -1.184961310038       -0.22241245534169       0.831479176118778
183                     100                     112              105.656854        1.12184185891152       0.140905646779296      -0.803396233017193
184                     100                     112              102.828427        0.58278226724526      -0.141476688359526    -0.00716072967393998
185                     100                     112                     100        1.11222003796777        0.13630079982038       0.814949224962662
186                     102                     114              105.656854       -0.64690051750575      -0.173376592287483      -0.380534727379258
187                     102                     114              102.828427       0.185051899101151       0.174175560117354      0.0145007734339009
188                     102                     114                     100      -0.625018300447196      -0.168005596475063       0.355402547999946
189                     104                     112              105.656854       0.407726429252234       0.198722628298223      -0.357669083642327
190                     104                     112              102.828427      -0.318100224494451      -0.187891266171188     -0.0179567840158716
191                     104                     112                     100        0.38179855324447       0.177792450078689        0.39603568099594
192                     106                     114              105.656854      -0.338404061964608      -0.201942141530782      -0.570334065240331
193                     106                     114              102.828427       0.307421820352209       0.207436232519905      0.0292969321919007
194                     106                     114                     100      -0.317012516052736      -0.199317387459539       0.467924047201496
195                     108                     112              105.656854        0.19849581270412       0.270213381282492      -0.277909572185132
196                     108                     112              102.828427      -0.244292413409223      -0.218635275387825     -0.0119570500364991
197                     108                     112                     100       0.256970424350436       0.209237777786512       0.384027554929508
198                     110                     114              105.656854     -0.0984644114524497      -0.203803145122156       -0.68908268778928
199                     110                     114              102.828427       0.216388136238594        0.22121414103707     -0.0162344160543349
200                     110                     114                     100      -0.238692318768503       -0.21865076073464       0.466653590925067
201                     112                     112              105.656854        0.16627555021231       0.196327053398166      -0.510760089788875