ITEM: TIMESTEP
0
ITEM: NUMBER OF ATOMS
422
ITEM: BOX BOUNDS ff ff ff
0.0000000000000000e+00 2.3200000000000000e+02
0.0000000000000000e+00 2.3200000000000000e+02
0.0000000000000000e+00 2.3200000000000000e+02
ITEM: ATOMS id xu yu zu fx fy fz
1        111.745932193839        115.983520815677              108.656854     0.00474707959291263    -0.00117865137120833    -0.00593983913892315
2        117.427484840071        115.989226241634              108.656854     -0.0116698646057737   -0.000848154342248734      0.0129827745727904
3        116.002344993917        115.987795112765              108.656854      0.0029009007205178     0.00294504050371461   -0.000138008260762181
4        113.171072038949        115.984951942936              108.656854    -0.00081374561386623     0.00338961083439865      0.0100622349314759
5        115.301075167769        114.749724850164              108.656854      0.0243603547568336      0.0163453515002293      0.0395627883151759
6        113.874826990867        114.748292608712              108.656854    -0.00194402191372519      0.0424836121629785       0.133572368592928
7        113.872341865028        117.223022205388              108.656854    -0.00187151705951978     -0.0350507076636929       0.129087597737412
8        115.298590041422        117.224454446583              108.656854      0.0238044008170493     -0.0087257709449139      0.0382269677125329
9        113.117756920757        113.548446241175              108.656854     -0.0479805006574652     -0.0297985385071052       0.108175728217603
10        116.060553482731        113.551401403886              108.656854     -0.0172605903485215     -0.0156920501134636      0.0137818219582981
11        113.112863550773        118.421345651893              108.656854     -0.0487161994161256     0.00988680921733157       0.111424035732855
12        116.055660110655        118.424300814179              108.656854      -0.016746550955921    -0.00322642309365944       0.016025866763505
13        111.727311260236        113.562444587898              108.656854      0.0286529826255222      -0.016893651883464      0.0190626791127444
14        111.722448808114        118.404554762274              108.656854      0.0288876446121502    0.000752469240583159      0.0215493602089605
15        117.450968226168        113.568192293572              108.656854     -0.0651415453495917     -0.0363133172955918       0.154879772172694
16        117.446105771496         118.41030247058              108.656854     -0.0653298784098382      0.0195592188921915       0.157748913374781
17        111.026795838139         117.19431994364              108.656854      0.0275945002047341     -0.0102079765159837      0.0597485429038771
18         111.02922905874        114.771279815063              108.656854      0.0284176622913047      0.0194069206819407      0.0623325081415057
19        118.146621196692        114.778427112272              108.656854      0.0126593814219451      0.0389238684636183       0.127151582656098
20        118.144187975028         117.20146724296              108.656854      0.0122574473628828     -0.0298372341356634       0.123948332328486
21        119.555135022624        114.824435085822              108.656854       0.102300804960863       0.113948631184123      0.0298055905735843
22        119.552791362251        117.158288229576              108.656854       0.100130895444297     -0.0103683648634856      0.0256766464130865
23        109.620625673161        114.814458829493              108.656854     0.00919946043826626       0.141316486207402      0.0840032551803359
24        109.618282013145        117.148311972274              108.656854      0.0116952436562548     -0.0359817705788245      0.0764710291081589
25        120.186726460739        115.991997078118              108.656854     -0.0473271361517956     -0.0271633474030608      -0.046003915138578
26        108.986690574472        115.980749978664              108.656854     -0.0490958185310659     -0.0271114523982725     -0.0358774760937133
27        120.209196045824        118.185922140926              108.656854      -0.150224260639183     -0.0519739582750882       0.023685476158385
28          120.2136022867        113.798121569695              108.656854      -0.155885162008124     -0.0756226874196627      0.0127037847507989
29        108.959814750727        118.174625487296              108.656854     -0.0827754248088885     -0.0567639103418151      0.0657779974458672
30         108.96422099026         113.78682491673              108.656854     -0.0783995857778136     -0.0752778626248331      0.0540819093523809
31        111.199866822243        112.615454800093              108.656854     -0.0417522606375528      0.0253234514428626      0.0101683831879877
32        111.193103500599        119.350483321209              108.656854      -0.040586393119619       0.016479807658558     0.00392733880505042
33        117.980313532952        112.622263734631              108.656854      0.0702345098208499      0.0243373939551427     -0.0113846467766408
34        117.973550207142        119.357292260389              108.656854       0.068768011781829      0.0173942253409044     -0.0170290165024673
35        113.562286572867         112.56896056388              108.656854      0.0197584232885329      0.0132572947745421    -0.00501152457986633
36        113.555425108682        119.401722146141              108.656854      0.0198945860001358      0.0144793033601761    -0.00875079353311904
37        115.617991924022        112.571024909739              108.656854     0.00685445565169986      0.0159823943695602     0.00588000983545235
38        115.611130457531        119.403786490585              108.656854     0.00636798488749343      0.0116156566925845     0.00182288075154064
39                     100                     100              105.656854       0.211853710533437       0.214053836154509      -0.975673470341403
40                     100                     100              102.828427       0.432288849524846         0.4303953375728   -0.000377237214748574
41                     100                     100                     100        0.21192278822364       0.213435092355905       0.976300371788294
42                     102                     102              105.656854      -0.343859385214441      -0.347696667908885      -0.277987997402422
43                     102                     102              102.828427     -0.0514242550185008     -0.0482958269979306    0.000671819479226619
44                     102                     102                     100      -0.344096752593642      -0.346425608682851       0.276913010642864
45                     104                     100              105.656854      0.0952513148249945       0.959807401985315      -0.809010312066486
46                     104                     100              102.828427      -0.063342583863248       0.726937841454153   -0.000154494656264772
47                     104                     100                     100      0.0958598066045186       0.959247750867147       0.809229118829417
48                     106                     102              105.656854      -0.148093923920383      -0.514146263889416       -0.38123606467993
49                     106                     102              102.828427       0.141494031073339      0.0659255818058923    4.11666751260325e-05
50                     106                     102                     100      -0.149689467030394      -0.513327076969547       0.381247884597151
51                     108                     100              105.656854       0.109247376735097        1.05914875640629      -0.802119601549443
52                     108                     100              102.828427      -0.111340334893391        0.64058370253152    0.000560844560593278
53                     108                     100                     100       0.110493209909006        1.05955937044579       0.801133064347853
54                     110                     102              105.656854       -0.14312787975863      -0.579844084132938      -0.373306940734754
55                     110                     102              102.828427       0.147984863171604       0.133439884905404    -0.00163398860921068
56                     110                     102                     100      -0.145630351600748      -0.581816903554862       0.376050679462009
57                     112                     100              105.656854       0.132324161933521        1.10741096612229      -0.810890661184002
58                     112                     100              102.828427      -0.135982810477584       0.590182449581731     0.00145774184939286
59                     112                     100                     100       0.133216798612659        1.10939813273407       0.808432152490173
60                     114                     102              105.656854      -0.165682760621638      -0.617732219612897      -0.361120181844371
61                     114                     102              102.828427       0.170110746007014       0.174116656674028    -0.00294246932149364
62                     114                     102                     100      -0.166159703318264      -0.622282116999224       0.365969694475249
63                     116                     100              105.656854       0.167737788061769        1.14399011216595      -0.821195330841724
64                     116                     100              102.828427      -0.171669500999998       0.552235873375452     0.00161849769283065
65                     116                     100                     100       0.167217694223198        1.14627951389199       0.818475043836029
66                     118                     102              105.656854      -0.211040902607252      -0.652295506291496      -0.348309309343335
67                     118                     102              102.828427       0.215525283901975       0.208882000008554    -0.00217232458089523
68                     118                     102                     100      -0.208823326444755      -0.655303003910143       0.351921213969935
69                     120                     100              105.656854       0.223661341864894        1.18346832975772      -0.835018123143517
70                     120                     100              102.828427       -0.22903029365712       0.512261041196435    0.000848678592353096
71                     120                     100                     100       0.222371880982623        1.18435704417254       0.833556534076583
72                     122                     102              105.656854      -0.288450027220421      -0.689676653089223      -0.330742682383523
73                     122                     102              102.828427       0.293441799898994       0.245496244530346   -0.000373485045116515
74                     122                     102                     100      -0.286399613659605       -0.68944999371697       0.331437807032987
75                     124                     100              105.656854       0.326022402596197        1.23746330604305      -0.851943069045497
76                     124                     100              102.828427      -0.322779619888399       0.458914391485233    7.67361468054419e-06
77                     124                     100                     100       0.325197251239619        1.23707913308312       0.851883440447006
78                     126                     102              105.656854      -0.460840039212067      -0.728221121161973       -0.33214955267141
79                     126                     102              102.828427       0.396616402429235       0.282165333680001    0.000582018777072207
80                     126                     102                     100      -0.460289891616259      -0.726916332211591       0.331241070728555
81                     128                     100              105.656854       0.707837325637489        1.34092524822837      -0.754699773090134
82                     128                     100              102.828427      -0.280580745862411       0.395878577991511   -0.000347424884693307
83                     128                     100                     100       0.707648923138507        1.34027360647984       0.755266163984261
84                     130                     102              105.656854       -1.34013173194813       -0.70863717004715      -0.755384361007897
85                     130                     102              102.828427      -0.396260496856225       0.280997421320551    0.000660360745849997
86                     130                     102                     100       -1.34029241469256      -0.707690215392467       0.754286945841074
87                     100                     104              105.656854       0.958677193223787       0.100589782928116      -0.808277468722525
88                     100                     104              102.828427       0.728085426441266     -0.0675516745864731    -0.00120711243581347
89                     100                     104                     100       0.958179416675088      0.0988576573282309       0.810243575642799
90                     102                     106              105.656854      -0.512907287261594      -0.158371057042847      -0.383234982784073
91                     102                     106              102.828427      0.0643431703737484       0.148770255290357     0.00254235248978149
92                     102                     106                     100      -0.511763894204368      -0.154275281276475       0.379191078499453
93                     104                     104              105.656854       0.245746102130577       0.253039904497089       -0.38849940758221
94                     104                     104              102.828427      -0.178878814872228      -0.184318017220167    -0.00122453514208195
95                     104                     104                     100       0.246619518777306       0.250266513977361       0.390400646859265
96                     106                     106              105.656854      -0.229330419757946      -0.244764202906366      -0.504510530914248
97                     106                     106              102.828427       0.222896642228493       0.232739592577159     0.00210263335641669
98                     106                     106                     100      -0.232899202702691      -0.238547813473698       0.501136896266282
99                     108                     104              105.656854       0.171153568607607       0.336224635194796      -0.376017752578936
100                     108                     104              102.828427      -0.176002091951476      -0.267151371964349    0.000708292898835228
101                     108                     104                     100       0.175534787549953       0.335789018586675       0.374755316902116
102                     110                     106              105.656854      -0.179187290960185      -0.285598723416451      -0.486955154198101
103                     110                     106              102.828427       0.191068618708702       0.281882973624503    -0.00394760041409994
104                     110                     106                     100      -0.190632097698548      -0.290138565865692       0.493722867217366
105                     112                     104              105.656854       0.168400602811192       0.375453954084163      -0.392123277335919
106                     112                     104              102.828427      -0.175182790337436      -0.312211884941564     0.00438656203330848
107                     112                     104                     100       0.172434069832969       0.382310439965603       0.384898088431534
108                     114                     106              105.656854       -0.19476673507288      -0.302953564482309      -0.465112518619819
109                     114                     106              102.828427       0.201378416704859       0.309516915932353     -0.0101352619727832
110                     114                     106                     100       -0.19714087268478       -0.32137531123877       0.482484265555617
111                     116                     104              105.656854       0.202137602142153       0.405526197135785      -0.406237761625316
112                     116                     104              102.828427      -0.206032312044307      -0.344261205020416     0.00511831102265807
113                     116                     104                     100       0.199731821987273       0.413937662353774       0.397830972877566
114                     118                     106              105.656854      -0.246756605180568      -0.335442061376315      -0.453426086132088
115                     118                     106              102.828427       0.246796974390536       0.337205451473576    -0.00641284957277278
116                     118                     106                     100      -0.236005884009227      -0.345482244633656       0.464443258588085
117                     120                     104              105.656854        0.26142182826046       0.439503567867271      -0.420477885711216
118                     120                     104              102.828427      -0.265720117261075      -0.374958920092177     0.00178487404611406
119                     120                     104                     100       0.256344013995344       0.441036146380421       0.417469259804601
120                     122                     106              105.656854       -0.31558677483891      -0.367969804120374      -0.440294215499078
121                     122                     106              102.828427       0.318715119579931       0.360491547860391    0.000965940051526603
122                     122                     106                     100      -0.309179668581512      -0.363011602999255       0.438746422261953
123                     124                     104              105.656854        0.36651394421495       0.465364633271245      -0.438095938180346
124                     124                     104              102.828427      -0.361556977228045      -0.399020608409116   -0.000920673232550782
125                     124                     104                     100       0.364730545885942       0.462694367792147       0.439486763624354
126                     126                     106              105.656854      -0.463656266214808      -0.368801146727769      -0.441417109928957
127                     126                     106              102.828427       0.399393795367023       0.361746418933587      0.0027192510580401
128                     126                     106                     100      -0.464170965255146      -0.363752596283242       0.437107401027233
129                     128                     104              105.656854        0.72700050992985       0.462160333762245      -0.330728123845185
130                     128                     104              102.828427      -0.281846858954486      -0.397081792666623    -0.00129550964522114
131                     128                     104                     100       0.727308859041979       0.460071919989445       0.332810384989801
132                     130                     106              105.656854       -1.23609443499581      -0.327425903969393      -0.853286461725438
133                     130                     106              102.828427      -0.459339396700893       0.323443535659796     0.00180809221396497
134                     130                     106                     100       -1.23741905081562      -0.325240021596817       0.850344304826986
135                     100                     108              105.656854         1.0632308065549       0.118262054109231      -0.799210598356097
136                     100                     108              102.828427        0.63846746390354      -0.117804312729663    -0.00323372037720225
137                     100                     108                     100        1.06020445134215       0.114604061658186       0.804403228083657
138                     102                     110              105.656854       -0.59111818702335      -0.159307640418715      -0.381696930784402
139                     102                     110              102.828427       0.138057377750917       0.157825672231329     0.00729567576023747
140                     102                     110                     100      -0.582820051644969      -0.150950209357921        0.36977250129847
141                     104                     108              105.656854       0.335990506359507       0.192918267102749      -0.369424463808567
142                     104                     108              102.828427      -0.264881486602009      -0.188694963092374    -0.00571369227499422
143                     104                     108                     100       0.333338833019291       0.182219408588852       0.378914460693068
144                     106                     110              105.656854      -0.289246559114304      -0.227983091138929       -0.51375132208772
145                     106                     110              102.828427       0.277339626791676       0.211090218399184       0.012562728501138
146                     106                     110                     100      -0.285877387772573      -0.198956416886667       0.486076590130885
147                     108                     108              105.656854       0.210520578027549       0.246694221554848      -0.361204525418792
148                     108                     108              102.828427      -0.224144113411145      -0.241542518043362    -0.00209051361562185
149                     108                     108                     100       0.226349382614063       0.234435877411139       0.366160724776661
150                     110                     110              105.656854      -0.156620217615302      -0.222448269263864      -0.458579381812084
151                     110                     110              102.828427       0.211357588489621       0.235968178049732    -0.00623094100669075
152                     110                     110                     100      -0.220987832116993       -0.23030082732748       0.479738253130545
153                     112                     108              105.656854        0.18199717493675        0.24018514010572      -0.402748213805373
154                     112                     108              102.828427      -0.201250182063583      -0.263489798765989      0.0143079681482458
155                     112                     108                     100       0.202867679157792       0.265327398093074       0.375155066618858
156                     114                     110              105.656854      -0.207496281351355      -0.173240786636029      -0.374365716222684
157                     114                     110              102.828427       0.220573947820177       0.242906036646298     -0.0325131552874573
158                     114                     110                     100      -0.217960573904733      -0.248210789190515       0.472178571250721
159                     116                     108              105.656854       0.236025176058543       0.253433957849518      -0.423741355803193
160                     116                     108              102.828427      -0.234083248314818      -0.283041032667556      0.0178333385971568
161                     116                     108                     100       0.223797037814489       0.286409366826185       0.389437421156494
162                     118                     110              105.656854      -0.311930276680063      -0.222019815826119      -0.392125174603934
163                     118                     110              102.828427       0.274898252546032       0.263940525575918     -0.0168420550018535
164                     118                     110                     100      -0.252831027312645      -0.261989593191483       0.448877734726001
165                     120                     108              105.656854       0.297710532144583       0.306708379800958      -0.418738093715323
166                     120                     108              102.828427      -0.290380537025421      -0.309742138478184     0.00213112763386304
167                     120                     108                     100       0.274521893634973       0.302837368025784        0.41568048096532
168                     122                     110              105.656854      -0.325440913762895      -0.301646350655398      -0.444424017241544
169                     122                     110              102.828427       0.326285615756385       0.281895866731456      0.0110935856107864
170                     122                     110                     100      -0.313278807231635      -0.267686593160397       0.415471208961439
171                     124                     108              105.656854       0.367318389237248       0.319679614756452      -0.431313523735907
172                     124                     108              102.828427      -0.364212648460083       -0.31716202947435    -0.00589611139656807
173                     124                     108                     100       0.367330810587811       0.306257607368842       0.441577391998036
174                     126                     110              105.656854      -0.435177831956111      -0.267774820723495      -0.429625311555452
175                     126                     110              102.828427       0.377176119241775       0.266694000428139     0.00913564391651895
176                     126                     110                     100      -0.444948194130416      -0.255315695017305       0.414072619458822
177                     128                     108              105.656854       0.687326545723852       0.291237390293626      -0.327564182881119
178                     128                     108              102.828427      -0.245490283091275      -0.294352707763252    -0.00394394069177538
179                     128                     108                     100       0.690775531745468       0.286139419428745       0.333873809242348
180                     130                     110              105.656854       -1.18052340466786      -0.225803264550596      -0.837606183121155
181                     130                     110              102.828427      -0.512999407894685       0.230038524488433     0.00395751094321747
182                     130                     110                     100       -1.18508787985574      -0.222548899779783       0.831240204443133
183                     100                     112              105.656854        1.12083814491496       0.140017142639916      -0.804398711482991
184                     100                     112              102.828427       0.582861722801713      -0.141073304821971    -0.00632329051803647
185                     100                     112                     100        1.11244701165522       0.136167027978836       0.814561862407944
186                     102                     114              105.656854      -0.644650651924118      -0.172481583462606      -0.377398357096099
187                     102                     114              102.828427       0.185339448610205       0.173863810360805      0.0127403900373697
188                     102                     114                     100      -0.625608423273914      -0.167937657019837       0.355905364865117
189                     104                     112              105.656854       0.406364609508404       0.194992528788887      -0.363655031466717
190                     104                     112              102.828427      -0.319770254322807       -0.18736350471019     -0.0163300328964221
191                     104                     112                     100       0.382791393517495       0.177795238933979       0.395941093953607
192                     106                     114              105.656854       -0.34811330063316      -0.206176544481385      -0.551620844716593
193                     106                     114              102.828427        0.31242513382767       0.207825018932593       0.028685949895805
194                     106                     114                     100      -0.318579339967515      -0.199483110333542       0.467129277414383
195                     108                     112              105.656854       0.229707537161888       0.272466171658145      -0.275402538275172
196                     108                     112              102.828427      -0.248805704788017      -0.220518879728334     -0.0164219301688546
197                     108                     112                     100       0.257876242616828       0.209813460591135       0.385814640361594
198                     110                     114              105.656854     -0.0670293295153196      -0.205001733090977      -0.710573341307907
199                     110                     114              102.828427       0.215670811707532       0.222347499256765    -0.00708522586009811
200                     110                     114                     100      -0.238270874711473      -0.219034972880651       0.463849465161656
201                     112                     112              105.656854       0.148702003234262       0.200458073478091      -0.500303605341719