ITEM: TIMESTEP
0
ITEM: NUMBER OF ATOMS
422
ITEM: BOX BOUNDS pp pp pp
0.0000000000000000e+00 3.2000000000000000e+01
0.0000000000000000e+00 3.2000000000000000e+01
0.0000000000000000e+00 3.2000000000000000e+01
ITEM: ATOMS id xu yu zu fx fy fz
1        13.1459321938386        15.9835208156773                 8.55685    -0.00815832200179358    0.000763671282155758      0.0199215321079176
2        18.8274848400711        15.9892262416344                 8.55685     0.00816994541837961    0.000514087902117388      0.0205816496440447
3         17.402344993917         15.987795112765                 8.55685    -0.00752490000805113    0.000719700532846557      0.0263215832525261
4         14.571072038949        15.9849519429358                 8.55685     0.00735785355618378    0.000905155288903526      0.0269554984576615
5        16.7010751677692        14.7497248501637                 8.55685      -0.033097630358299      0.0199066746330512      0.0631740994669718
6        15.2748269908674        14.7482926087119                 8.55685      0.0340010968475543      0.0206751128060967      0.0659988435313418
7        15.2723418650276        17.2230222053877                 8.55685      0.0331418008217372     -0.0209413415124237      0.0642789223934333
8        16.6985900414216        17.2244544465825                 8.55685     -0.0321815080092354     -0.0199846782430347      0.0611783500053874
9        14.5177569207574        13.5484462411751                 8.55685      0.0426316082034998     -0.0371723571535121       0.214449437121713
10        17.4605534827313        13.5514014038861                 8.55685     -0.0438445576038407     -0.0364500052984536       0.211491602415599
11        14.5128635507729         18.421345651893                 8.55685      0.0430906545680309      0.0353904600515366       0.219113791093391
12        17.4556601106552        18.4243008141789                 8.55685     -0.0446979674888984      0.0348274733039605       0.213808411298911
13        13.1273112602358        13.5624445878976                 8.55685     -0.0527049144318879     -0.0264537705554151         0.1541827492617
14        13.1224488081137        18.4045547622743                 8.55685     -0.0536512744225614      0.0247609770465925       0.156239382919258
15         18.850968226168        13.5681922935721                 8.55685      0.0528262839551759     -0.0268238644224206       0.158740134211256
16        18.8461057714963        18.4103024705805                 8.55685      0.0534217843701761      0.0259204279942276       0.161639249032646
17         12.426795838139        17.1943199436399                 8.55685     -0.0202851087286121     -0.0127640930805286      0.0355998570732331
18        12.4292290587396        14.7712798150634                 8.55685       -0.02112253645482      0.0127374718283706      0.0371887513103361
19        19.5466211966922        14.7784271122721                 8.55685      0.0220701709361274      0.0132809287281518      0.0386186325282473
20        19.5441879750283        17.2014672429596                 8.55685      0.0217295586651815     -0.0133846473719112      0.0379239211833005
21        20.9551350226241        14.8244350858224                 8.55685     -0.0371727423248787      0.0295038676394184      0.0876485102749196
22        20.9527913622507        17.1582882295758                 8.55685     -0.0364545481319899     -0.0294712760267678      0.0856208063896474
23        11.0206256731611        14.8144588294926                 8.55685      0.0379315248268437      0.0304149841145155       0.091774418773159
24        11.0182820131454        17.1483119722736                 8.55685      0.0364817193641446     -0.0306429714959121      0.0881958863050072
25        21.5867264607395        15.9919970781177                 8.55685    -0.00220614504403573     0.00021741169471613     0.00331032102530437
26        10.3866905744716        15.9807499786644                 8.55685     0.00210086651386151    0.000530295040826298     0.00352695243121229
27         21.609196045824        18.1859221409264                 8.55685     -0.0162101340386867      0.0077016341596416       0.101964525658853
28        21.6136022867001        13.7981215696947                 8.55685      -0.015997455762756     -0.0083478957268791       0.101752382883822
29        10.3598147507275        18.1746254872963                 8.55685      0.0151942054070206     0.00736585913805406       0.104087736007658
30        10.3642209902605        13.7868249167297                 8.55685      0.0151967650414046    -0.00888580460810343        0.10267471954434
31        12.5998668222426        12.6154548000933                 8.55685   -0.000937006612368231   -0.000920330759791332    -0.00849769258558577
32        12.5931035005993        19.3504833212092                 8.55685    -0.00101797786210475    0.000954689447519854    -0.00837975710733245
33        19.3803135329519        12.6222637346313                 8.55685    0.000987947112890014   -0.000985050127304126    -0.00838034497272256
34        19.3735502071424         19.357292260389                 8.55685     0.00105681677649063     0.00103761643659063    -0.00825448464718922
35        14.9622865728669        12.5689605638796                 8.55685     0.00134598056181263    -0.00219768056784118    -0.00644592292994978
36         14.955425108682        19.4017221461408                 8.55685     0.00145477042089187     0.00232775373453122    -0.00613268328201012
37        17.0179919240215        12.5710249097393                 8.55685    -0.00133856921407073    -0.00213669385880444    -0.00654775059919087
38         17.011130457531        19.4037864905846                 8.55685    -0.00142194162970552     0.00219984904732657    -0.00636736367676686
39                       0                       0                5.656854                       0                       0                       0
40                       0                       0                2.828427                       0                       0                       0
41                       0                       0                       0                       0                       0                       0
42                       2                       2                5.656854    5.72698061381515e-10    8.07043690920489e-10    1.98562674174684e-10
43                       2                       2                2.828427                       0                       0                       0
44                       2                       2                       0                       0                       0                       0
45                       4                       0                5.656854                       0                       0                       0
46                       4                       0                2.828427                       0                       0                       0
47                       4                       0                       0                       0                       0                       0
48                       6                       2                5.656854    1.84266099763645e-08    3.72669612425706e-08    9.29487557856171e-09
49                       6                       2                2.828427    6.98603989280649e-10    1.43213493889867e-09    7.10500424526266e-10
50                       6                       2                       0                       0                       0                       0
51                       8                       0                5.656854     6.9286438127247e-10    4.86290900082411e-11    4.70387478539406e-10
52                       8                       0                2.828427    4.16249343683801e-10    2.29623109787434e-11    5.18747402250456e-10
53                       8                       0                       0                       0                       0                       0
54                      10                       2                5.656854    8.06825526971503e-08    3.11689278082546e-07    7.96242667550852e-08
55                      10                       2                2.828427    3.00397181064093e-09    1.16584359761775e-08    5.87989051034821e-09
56                      10                       2                       0    1.06312174924832e-09    4.57264375783353e-09    3.51050494524151e-09
57                      12                       0                5.656854    1.40431402830149e-09     2.1904508143258e-10    2.20451206917675e-09
58                      12                       0                2.828427    1.80955846516725e-09    2.52612761254808e-10     5.4295304616706e-09
59                      12                       0                       0                       0                       0                       0
60                      14                       2                5.656854    4.99540119997157e-08    7.68513783584823e-07    1.99550617466154e-07
61                      14                       2                2.828427    1.76530416956432e-09    2.75182769725932e-08    1.40700360885639e-08
62                      14                       2                       0    8.77718213304292e-10    1.20075049674047e-08    9.30189627215042e-09
63                      16                       0                5.656854   -7.29382505017055e-12    2.91029115329597e-10    3.30506461208099e-09
64                      16                       0                2.828427   -1.03034658159228e-11    3.13067837503731e-10    7.58365757351209e-09
65                      16                       0                       0                       0                       0                       0
66                      18                       2                5.656854   -5.11686949742792e-08    7.64145606401874e-07    1.98376542161477e-07
67                      18                       2                2.828427   -1.80947448764527e-09    2.73754793817571e-08    1.39939351589961e-08
68                      18                       2                       0   -8.96660519895851e-10    1.19525071114588e-08    9.25735402740179e-09
69                      20                       0                5.656854   -1.40903778145597e-09    1.67758312551167e-10    2.19190799321279e-09
70                      20                       0                2.828427   -1.81982657121739e-09    1.96889038570306e-10     5.3991588916147e-09
71                      20                       0                       0                       0                       0                       0
72                      22                       2                5.656854   -7.95703910925034e-08    3.05450359212172e-07    7.80424564859025e-08
73                      22                       2                2.828427   -2.97966163389674e-09    1.14808395030473e-08    5.78736247814516e-09
74                      22                       2                       0   -1.05688452053315e-09    4.51061075196202e-09    3.46085117456167e-09
75                      24                       0                5.656854   -6.87507424901949e-10    3.14794805827185e-11    4.64452409458319e-10
76                      24                       0                2.828427   -4.13133561751276e-10    1.66156910641028e-11    5.11917759208245e-10
77                      24                       0                       0                       0                       0                       0
78                      26                       2                5.656854   -1.80203296582099e-08    3.63160824554203e-08    9.05177156905179e-09
79                      26                       2                2.828427   -6.45753127769603e-10    1.35255292455165e-09     6.6846706634445e-10
80                      26                       2                       0                       0                       0                       0
81                      28                       0                5.656854                       0                       0                       0
82                      28                       0                2.828427                       0                       0                       0
83                      28                       0                       0                       0                       0                       0
84                      30                       2                5.656854   -5.55078293979302e-10    7.80893229363637e-10    1.91944728506491e-10
85                      30                       2                2.828427                       0                       0                       0
86                      30                       2                       0                       0                       0                       0
87                       0                       4                5.656854    5.77022926696349e-12    3.15068199118078e-10    9.33069886976104e-11
88                       0                       4                2.828427                       0                       0                       0
89                       0                       4                       0                       0                       0                       0
90                       2                       6                5.656854    1.03594598638648e-07    9.50499050402464e-08    3.42074024987543e-08
91                       2                       6                2.828427    3.98895625628372e-09    3.61653920101464e-09     2.5711194547288e-09
92                       2                       6                       0    1.18733523120083e-09    1.10537150723199e-09    1.21467970357684e-09
93                       4                       4                5.656854    1.16022707008497e-08    1.58498908964139e-08     4.6689198421977e-09
94                       4                       4                2.828427    1.44500742632086e-08    1.99716831251359e-08    1.15685910267593e-08
95                       4                       4                       0    1.61996900542778e-10    2.24905217110807e-10    2.02019557577629e-10
96                       6                       6                5.656854     3.4587469653043e-06    5.12577096669139e-06    1.89015334002388e-06
97                       6                       6                2.828427    9.89083634812717e-08    1.44458841488677e-07    1.04498314900169e-07
98                       6                       6                       0    3.97400596857994e-08    5.74263216543376e-08    6.17253396580921e-08
99                       8                       4                5.656854    1.34554580555587e-07    3.16259260943194e-07    9.57393575364258e-08
100                       8                       4                2.828427    1.41916205684468e-07    3.30294167222993e-07    1.96410247277697e-07
101                       8                       4                       0    1.96845782514099e-09    4.63800824916806e-09    4.11366664539248e-09
102                      10                       6                5.656854    2.28417064293898e-05    6.81313697910633e-05    2.64847611916001e-05
103                      10                       6                2.828427    4.92638217428587e-07    1.44478480838264e-06    1.09199895066386e-06
104                      10                       6                       0     1.5262749165044e-07     4.3791558659746e-07    4.86396586801298e-07
105                      12                       4                5.656854    2.72294115375685e-07    1.63715819170312e-06     5.1198230031599e-07
106                      12                       4                2.828427    2.54194333344968e-07    1.48300832568272e-06    9.07309341605675e-07
107                      12                       4                       0    3.27216149735788e-09    1.85723351337796e-08    1.68195750684351e-08
108                      14                       6                5.656854    1.27472284486029e-05    0.000193880108562913    7.79405195446901e-05
109                      14                       6                2.828427    2.72190092118374e-07    3.64305111005774e-06    2.83905771166179e-06
110                      14                       6                       0    8.36454285673314e-08    9.90204955218257e-07    1.12879057545739e-06
111                      16                       4                5.656854   -2.55735070776671e-09    2.45571841185861e-06    7.75758724132975e-07
112                      16                       4                2.828427   -2.27638815157165e-09    2.17693803549046e-06    1.34502398662892e-06
113                      16                       4                       0    -2.8132547237186e-11    2.67556263333245e-08    2.44269064651446e-08
114                      18                       6                5.656854   -1.31177619710559e-05    0.000192714285712645    7.74376337448271e-05
115                      18                       6                2.828427    -2.7922654425595e-07    3.62440254461827e-06    2.82339847009476e-06
116                      18                       6                       0   -8.55912573190847e-08    9.85957002770042e-07    1.12354691139009e-06
117                      20                       4                5.656854   -2.72511259583421e-07    1.61759384819734e-06    5.05592704787296e-07
118                      20                       4                2.828427   -2.54632401981964e-07    1.46725215681592e-06    8.97217517346295e-07
119                      20                       4                       0   -3.28143066897988e-09    1.84019173177386e-08    1.66573127283651e-08
120                      22                       6                5.656854   -2.25693065336851e-05    6.68371444311593e-05    2.59565379655061e-05
121                      22                       6                2.828427   -4.88057623813361e-07    1.42126406088021e-06    1.07326687513419e-06
122                      22                       6                       0   -1.51586515249069e-07    4.31933683035031e-07     4.7936103388757e-07
123                      24                       4                5.656854   -1.32115823253609e-07    3.09015303019155e-07    9.34739130885486e-08
124                      24                       4                2.828427    -1.3964304675954e-07     3.2344930516544e-07    1.92196631958633e-07
125                      24                       4                       0   -1.94194999670075e-09    4.55375241265164e-09    4.03591174155922e-09
126                      26                       6                5.656854   -3.36876013906854e-06    4.97558369683967e-06    1.83273840440069e-06
127                      26                       6                2.828427   -9.66494365175732e-08    1.40696971256371e-07    1.01670457212664e-07
128                      26                       6                       0   -3.89711486306425e-08    5.61356279009095e-08    6.02774284936534e-08
129                      28                       4                5.656854   -1.12742771323292e-08     1.5363370003705e-08    4.52162238985049e-09
130                      28                       4                2.828427   -1.40722199588268e-08    1.94021735735729e-08    1.12287181075659e-08
131                      28                       4                       0   -1.58270845807283e-10    2.19224099134161e-10    1.96717161234473e-10
132                      30                       6                5.656854     -1.001192079204e-07    9.17864235683249e-08     3.2996082508799e-08
133                      30                       6                2.828427   -3.86731111036106e-09    3.50089573342985e-09    2.48606661667789e-09
134                      30                       6                       0   -1.15519945159441e-09    1.07416629508181e-09    1.17867870870223e-09
135                       0                       8                5.656854    4.13684394418417e-10    1.32720123945465e-08    6.10831226304213e-09
136                       0                       8                2.828427    4.48379153386446e-10    1.55252793973409e-08    1.42975078450478e-08
137                       0                       8                       0    4.31357955348546e-12     1.6320690594377e-10    2.41098837072052e-10
138                       2                      10                5.656854    3.41278547881263e-06    1.73026688659424e-06    1.14210355452654e-06
139                       2                      10                2.828427    9.98774113904506e-08    5.12344425364369e-08     6.5588559507673e-08
140                       2                      10                       0     4.1246242726354e-08    2.12648888082553e-08    3.99906261158852e-08
141                       4                       8                5.656854    1.08338650907535e-06    9.63227601658449e-07    4.57194853607839e-07
142                       4                       8                2.828427    9.35227035223966e-07    8.28121160179944e-07     7.6739986914147e-07
143                       4                       8                       0    1.11420684500569e-08    9.81373433472253e-09    1.34416054678123e-08
144                       6                      10                5.656854    0.000301381737071636    0.000257630478418087    0.000180326681398746
145                       6                      10                2.828427    4.45720737672714e-06    3.78034298341225e-06     5.0703842543168e-06
146                       6                      10                       0    9.99692279245784e-07    8.40174901254856e-07    1.62690168845885e-06
147                       8                       8                5.656854     2.4895786214121e-05    4.19960315635402e-05    2.09246921250563e-05
148                       8                       8                2.828427    1.34753309918232e-05    2.19600168708484e-05    2.12421659431262e-05
149                       8                       8                       0    1.04290998438298e-07    1.64446015075894e-07    2.32596201387273e-07
150                      10                      10                5.656854     0.00310143517732172     0.00621972151553634     0.00477545432263582
151                      10                      10                2.828427    2.74248780022092e-05     5.2735038767974e-05    7.62551657632626e-05
152                      10                      10                       0    4.02004694603176e-06     7.2816094897358e-06    1.49530427803169e-05
153                      12                       8                5.656854    6.70356950491393e-05    0.000311703439738444     0.00016933882428004
154                      12                       8                2.828427    2.64136813856454e-05    0.000116766380354109    0.000120634697279976
155                      12                       8                       0    1.61889364789531e-07    6.72481547875226e-07    9.99653713530022e-07
156                      14                      10                5.656854     0.00107756137643429      0.0161876420735148      0.0136933755399509
157                      14                      10                2.828427    1.07433446030652e-05    0.000126574422904427    0.000198988370599452
158                      14                      10                       0    1.73925337799717e-06    1.53369291928643e-05    3.34387006134334e-05
159                      16                       8                5.656854   -5.01643390252502e-07    0.000457063687775239    0.000254272223260724
160                      16                       8                2.828427   -1.92364347990638e-07    0.000165823743169303     0.00017523155130562
161                      16                       8                       0   -1.13961991396076e-09    9.30410155648125e-07    1.41074819122437e-06
162                      18                      10                5.656854    -0.00112531942152801      0.0161377112880337      0.0136389123074307
163                      18                      10                2.828427   -1.10963761014201e-05    0.000126146311226596    0.000198136623787313
164                      18                      10                       0     -1.781505016043e-06    1.52932869248245e-05    3.33190797448959e-05
165                      20                       8                5.656854   -6.70649467914402e-05    0.000307679915923627    0.000166958837237661
166                      20                       8                2.828427   -2.64745933909269e-05    0.000115577285352664    0.000119285130738805
167                      20                       8                       0    -1.6245289374176e-07    6.66988683321493e-07    9.90618737887156e-07
168                      22                      10                5.656854    -0.00306592249931978     0.00610901283117915     0.00468001140084913
169                      22                      10                2.828427   -2.72017322066012e-05    5.19560552662056e-05    7.49841238662775e-05
170                      22                      10                       0   -3.99875530357966e-06    7.19687181742875e-06    1.47557883631307e-05
171                      24                       8                5.656854   -2.43564425820303e-05     4.0887502562486e-05    2.03410540373565e-05
172                      24                       8                2.828427   -1.32414375574058e-05    2.14804959585091e-05    2.07496627209749e-05
173                      24                       8                       0   -1.02870456945655e-07    1.61499187143778e-07    2.28149251906102e-07
174                      26                      10                5.656854   -0.000292301041096512    0.000249233221494172    0.000174053709550374
175                      26                      10                2.828427   -4.34952292160501e-06    3.67948842026484e-06     4.9254813807616e-06
176                      26                      10                       0   -9.80522227204203e-07    8.21912528894692e-07     1.5888913898314e-06
177                      28                       8                5.656854   -1.04830977639652e-06    9.30216798775669e-07    4.40855457938137e-07
178                      28                       8                2.828427   -9.08688749875044e-07    8.03022997155408e-07    7.43098962378914e-07
179                      28                       8                       0    -1.0873422398812e-08    9.55789355213716e-09    1.30741292219464e-08
180                      30                      10                5.656854   -3.29000624819364e-06    1.66752340893704e-06     1.0986313138675e-06
181                      30                      10                2.828427   -9.66633962715838e-08    4.95646868854299e-08    6.33436090359159e-08
182                      30                      10                       0    -4.0110055226886e-08    2.06567396968239e-08    3.87841208831009e-08
183                       0                      12                5.656854    4.49964569479013e-09    6.35683695090322e-08    6.48781289266732e-08
184                       0                      12                2.828427    4.67003447151351e-09    7.35657749600318e-08    1.44857451705936e-07
185                       0                      12                       0    6.00774994308754e-11    1.12403999077802e-09    3.17176497953361e-09
186                       2                      14                5.656854    2.00629624258957e-05     2.8683737718413e-06    6.71719364619492e-06
187                       2                      14                2.828427    5.03247450701104e-07    7.63124073282515e-08    3.31405731894543e-07
188                       2                      14                       0    1.78790925131689e-07    2.84515099524387e-08    1.72964578690675e-07
189                       4                      12                5.656854    2.50964085496861e-05    9.52432735188863e-06    1.08382306314219e-05
190                       4                      12                2.828427    1.43734513813492e-05    5.67275536256951e-06    1.20502314233623e-05
191                       4                      12                       0    1.16425943956427e-07    4.75396208313749e-08    1.42672219618647e-07
192                       6                      14                5.656854     0.00342275765971963    0.000705365274197609     0.00208685121229151
193                       6                      14                2.828427    3.33082914867951e-05    7.77391853771451e-06    3.88009327806454e-05
194                       6                      14                       0    5.16938029590238e-06    1.31107703312584e-06      8.619424997158e-06
195                       8                      12                5.656854     0.00143790605653729     0.00112855580885943     0.00142625660824853
196                       8                      12                2.828427    0.000326161494583886    0.000253189517802794    0.000583684082743459
197                       8                      12                       0    1.30402507842678e-06     9.9738269836031e-07    3.17679318277095e-06
198                      10                      14                5.656854     -0.0368845209530341     -0.0165138534682946      -0.206597377260187
199                      10                      14                2.828427    0.000209652281581819    0.000127401968591126    0.000727516205254682
200                      10                      14                       0    1.98815816859915e-05    1.17615816326694e-05    8.48396898200376e-05
201                      12                      12                5.656854     0.00170319771627922     0.00560838127736422      0.0072569972221438