ITEM: TIMESTEP
0
ITEM: NUMBER OF ATOMS
422
ITEM: BOX BOUNDS pp pp pp
0.0000000000000000e+00 3.2000000000000000e+01
0.0000000000000000e+00 3.2000000000000000e+01
0.0000000000000000e+00 3.2000000000000000e+01
ITEM: ATOMS id xu yu zu fx fy fz
1        13.1109675803143         15.948556202153        8.62188538647573        3.10088395967578         2.4361064257487       0.500195624549784
2        18.8544263948374        16.0161677964007        8.68379155476626       -5.37426777334998       -4.45169050989949       -1.01021654930405
3        17.3790485671338        15.9644986859818        8.63355357321686        3.63420582262879        3.02530292712504       0.735800134389172
4        14.6015778553061        16.0154577592929        8.68735581635704       -5.86773777320037       -4.88644919200955        -1.1153835500159
5        16.7031966735979        14.7518463559924        8.65897150582867      -0.717434735419669       -1.32568705522133       -0.25923948428585
6        15.2802100475176         14.753675665362        8.66223305665013        1.97559366517497        2.15746075606709       0.507993154843456
7        15.2425332829617        17.1932136233219        8.62704141793416        4.63131730970027        5.56652597263098        1.14074927385572
8        16.6882183343744        17.2140827395354        8.64647829295286      -0.808667446168189      -0.725727394133315      -0.396373142503239
9        14.5565909804595        13.5872803008772        8.69568405970208       -2.56926214511024       -2.90236033116127      -0.465878911597659
10        17.4572467998682        13.5480947210229        8.65354331713683      -0.197010652443573       0.377089091077104       0.158752526636006
11        14.5586550526105        18.4671371537306        8.70264150183754        -6.0995284998192       -6.19586152773479       -1.12778896917235
12        17.4596308010338        18.4282715045575         8.6608206903786        1.14595625054787        1.19993201410776        0.53337696756814
13        13.1446430463835        13.5797763740454        8.67418178614777       0.352631613746554      -0.106364165785265       0.169720659869288
14        13.0924897626685        18.3745957168291        8.62689095455484         4.0766990114464        3.40508669584366         1.1085093439334
15        18.8300777666023        13.5473018340063        8.63595954043426        1.41319538281079        1.25521986805681       0.304029013274583
16         18.886603682103        18.4508003811871        8.69734791060669       -2.81759951570472       -2.85721415636565      -0.543577177244881
17        12.4042260916132        17.1717501971142        8.63428025347423        1.05612334406921       0.341458555016072      0.0233543940273475
18        12.3978963726772         14.739947129001         8.6255173139376        3.98897962992664        3.80320797371354       0.699624732347674
19        19.5422327189222        14.7740386345021        8.65246152223001        1.46306607326027       0.417594320861705       0.548222741207101
20        19.5167371264684        17.1740163943997        8.62939915144015        3.08846988647507         4.2963827071813       0.876287535532949
21        20.9769962986636        14.8462963618619        8.67871127603951       -3.81134647148854       -4.24226805453355      -0.466138184569394
22        20.9183657941578        17.1238626614829        8.62242443190707       -1.18881549251514       -1.67690796750026      -0.351599292985019
23        11.0660107441496         14.859843900481        8.70223507098846        -5.3865307980246       -5.55915777469354       -1.19476872379563
24        11.0346689585181        17.1646989176464        8.67323694537274       -2.85124490483169        -1.6871034203058      -0.560606520896294
25        21.5391945531297        15.9444651705079        8.60931809239018        3.32753883866297        5.00328270097925       0.394077698821007
26        10.3726494390865        15.9667088432793        8.64280886461486        3.06947238228738        4.33838824712717       0.985753833262848
27        21.5602137370464        18.1369398321487        8.60786769122235        1.23789082430885        0.95917466460847      0.0276793949492407
28        21.6631550004349        13.8476742834295        8.70640271373481      -0.111424173724141      -0.645387853993277      0.0937554298990855
29        10.4040473904137        18.2188581269825        8.70108263968619      -0.162115020529025      -0.768072182705669     0.00426976507794243
30         10.407873233884        13.8304771603533        8.70050224362353        0.25761327045115     0.00595724915565717       0.372211127089154
31        12.6420731708038        12.6576611486544        8.69905634856113      -0.363991185330067       -1.00832368422093    -0.00537237280557299
32        12.6294733030655        19.3868531236755        8.69321980246623      -0.488312528934112       -1.24875972148247      -0.292162740431751
33        19.3696792550277        12.6116294567071        8.64621572207581      -0.037299209781135      -0.151542400088663     -0.0611309704842563
34        19.4207856238153        19.4045276770618        8.70408541667287     -0.0253604391731949      -0.309369079217982      0.0206030130646376
35        14.9313635239164        12.5380375149291        8.62592695104955       0.518820594472839        1.37938619259937       0.281514207536186
36        14.9473109040987        19.3936079415575        8.64873579541671        1.37377050451391        1.85471578417338       0.111410230112655
37        17.0284302384487        12.5814632241665        8.66728831442721      -0.506606784650329      -0.455992969692311    -0.00389160409523585
38        17.0464639383436        19.4391199713972        8.69218348081261      -0.347332545794293       -0.62736781315706      -0.095176870806305
39                       0                       0                5.656854                       0                       0                       0
40                       0                       0                2.828427                       0                       0                       0
41                       0                       0                       0                       0                       0                       0
42                       2                       2                5.656854    5.01113927539555e-10    7.05103027790654e-10    1.81403130492547e-10
43                       2                       2                2.828427                       0                       0                       0
44                       2                       2                       0                       0                       0                       0
45                       4                       0                5.656854                       0                       0                       0
46                       4                       0                2.828427                       0                       0                       0
47                       4                       0                       0                       0                       0                       0
48                       6                       2                5.656854    1.66570963669721e-08    3.34259924659975e-08    8.68488577251275e-09
49                       6                       2                2.828427    5.37855913123882e-10    1.05552529246482e-09    5.43342274771347e-10
50                       6                       2                       0                       0                       0                       0
51                       8                       0                5.656854     6.5988612080133e-10   -3.31971120266432e-11    4.63098024984209e-10
52                       8                       0                2.828427    3.76261868463196e-10   -3.40579354204138e-11    4.76266276640276e-10
53                       8                       0                       0                       0                       0                       0
54                      10                       2                5.656854    7.52520076972645e-08     2.8460221796015e-07    7.56416382345825e-08
55                      10                       2                2.828427    2.72048522571877e-09    1.03151392478304e-08    5.30165795401127e-09
56                      10                       2                       0    9.46724249717635e-10     3.9374032831194e-09    3.06162309478835e-09
57                      12                       0                5.656854    1.37160921746195e-09   -2.35449447900646e-11    2.19543015421453e-09
58                      12                       0                2.828427    1.50989110577501e-09   -1.04971231566709e-09    4.67321740045332e-09
59                      12                       0                       0                       0                       0                       0
60                      14                       2                5.656854    5.11091733062038e-08    7.27216015531358e-07    1.95846983746402e-07
61                      14                       2                2.828427    1.76822693667854e-09    2.51673213668425e-08    1.31072128887859e-08
62                      14                       2                       0    8.40094930243284e-10    1.06567896458348e-08     8.3616331616561e-09
63                      16                       0                5.656854    3.60287075109989e-11    1.23873057919851e-10    3.34784541468962e-09
64                      16                       0                2.828427    2.27070662092829e-11    1.08498686576869e-10    7.29883793319009e-09
65                      16                       0                       0                       0                       0                       0
66                      18                       2                5.656854   -4.86569335521356e-08    7.36489823031558e-07     1.9779038133739e-07
67                      18                       2                2.828427   -1.66003261377373e-09     2.5542804880635e-08    1.32874726591973e-08
68                      18                       2                       0   -7.88611645770811e-10    1.09515382377594e-08    8.57983203120146e-09
69                      20                       0                5.656854   -1.38810577415846e-09    1.38640283830019e-11    2.24514275905171e-09
70                      20                       0                2.828427   -1.72866960202622e-09    1.34534352527505e-10    5.28670098294347e-09
71                      20                       0                       0                       0                       0                       0
72                      22                       2                5.656854   -7.71269498328967e-08    2.92476687802186e-07    7.73738618575496e-08
73                      22                       2                2.828427   -2.80455701472415e-09    1.06494488375952e-08    5.46701017423709e-09
74                      22                       2                       0   -9.74714827097432e-10    4.07886118560517e-09    3.16934654027777e-09
75                      24                       0                5.656854   -6.79604992691132e-10   -1.12854380382775e-11    4.71346627809355e-10
76                      24                       0                2.828427   -4.01171532042286e-10   -5.21550149210625e-12     5.0940069499768e-10
77                      24                       0                       0                       0                       0                       0
78                      26                       2                5.656854   -1.71229249802044e-08    3.43749979627124e-08    8.89910080617376e-09
79                      26                       2                2.828427   -5.92026544160007e-10    1.23293831587103e-09    6.21626412613516e-10
80                      26                       2                       0                       0                       0                       0
81                      28                       0                5.656854                       0                       0                       0
82                      28                       0                2.828427                       0                       0                       0
83                      28                       0                       0                       0                       0                       0
84                      30                       2                5.656854   -5.16884781054192e-10     7.3455636134669e-10      1.890721633058e-10
85                      30                       2                2.828427                       0                       0                       0
86                      30                       2                       0                       0                       0                       0
87                       0                       4                5.656854   -7.92508080747099e-12     2.8859512197923e-10    8.93616363949056e-11
88                       0                       4                2.828427                       0                       0                       0
89                       0                       4                       0                       0                       0                       0
90                       2                       6                5.656854    9.15224411691455e-08    8.41232976641288e-08    3.14705814896175e-08
91                       2                       6                2.828427    3.41097865362792e-09    3.09507547262072e-09    2.23596384013861e-09
92                       2                       6                       0    9.64554974647156e-10    8.98315839068686e-10    9.98125505412631e-10
93                       4                       4                5.656854    1.03196055758833e-08     1.4043595119325e-08    4.30811058621872e-09
94                       4                       4                2.828427    1.24223108414546e-08    1.71174244636707e-08     1.0093031956706e-08
95                       4                       4                       0    9.53456430550963e-11    1.46272114347711e-10    1.29458706663236e-10
96                       6                       6                5.656854    3.05795160576728e-06    4.50374602891262e-06    1.72587494008457e-06
97                       6                       6                2.828427    8.45806306983574e-08     1.2282134999157e-07    9.02680642980664e-08
98                       6                       6                       0    3.31023262507907e-08    4.72481541012828e-08    5.14663980875896e-08
99                       8                       4                5.656854    1.21944968284238e-07    2.83078863567514e-07     8.9110214342322e-08
100                       8                       4                2.828427     1.2386325831873e-07    2.85230827854943e-07    1.72653055083501e-07
101                       8                       4                       0    1.68767896082218e-09    3.92775331914275e-09    3.52076558656696e-09
102                      10                       6                5.656854    2.07689320710383e-05     6.0671657832881e-05    2.44706948972505e-05
103                      10                       6                2.828427     4.3391463556594e-07    1.24509326222874e-06     9.5585061331028e-07
104                      10                       6                       0    1.32394033475174e-07    3.71595391957053e-07    4.16527477591355e-07
105                      12                       4                5.656854    2.61444884027145e-07    1.50621971805534e-06    4.89052805839557e-07
106                      12                       4                2.828427    2.35259466419322e-07    1.31669309794473e-06    8.20071082256283e-07
107                      12                       4                       0    2.93338129030052e-09    1.60032343659352e-08    1.46836930864173e-08
108                      14                       6                5.656854    1.31968548721666e-05    0.000179534977590988    7.48364347605815e-05
109                      14                       6                2.828427    2.69163462718717e-07    3.24305440543952e-06    2.57171785941095e-06
110                      14                       6                       0    7.99732334138673e-08    8.64212866788538e-07    9.95675855500869e-07
111                      16                       4                5.656854    5.73493359022247e-09     2.3359018613307e-06    7.63961464375763e-07
112                      16                       4                2.828427    6.54301958015243e-09    1.99665883822564e-06    1.25554483724534e-06
113                      16                       4                       0    9.34063531426509e-11    2.36341014887961e-08    2.18935318000224e-08
114                      18                       6                5.656854   -1.22615600288981e-05    0.000182622972767775    7.58565428758758e-05
115                      18                       6                2.828427   -2.51141397604634e-07    3.30492894880408e-06    2.61854239644803e-06
116                      18                       6                       0   -7.51636592917874e-08    8.78848707616183e-07    1.01289024827729e-06
117                      20                       4                5.656854   -2.63930856388257e-07    1.54703900034062e-06    5.00090632491148e-07
118                      20                       4                2.828427   -2.38294067548947e-07    1.35492134811337e-06    8.43093104060004e-07
119                      20                       4                       0   -2.99464844732667e-09    1.65824517158348e-08    1.51909122702879e-08
120                      22                       6                5.656854   -2.14963772701156e-05    6.24650720266039e-05    2.51342596904935e-05
121                      22                       6                2.828427   -4.48681941041716e-07    1.28161788894726e-06    9.85324187765556e-07
122                      22                       6                       0   -1.36356710308109e-07    3.82025843496272e-07    4.28916793137991e-07
123                      24                       4                5.656854    -1.2541501163301e-07    2.90623781584076e-07    9.11985766728786e-08
124                      24                       4                2.828427   -1.27773747902213e-07    2.93458801076831e-07    1.77673758447956e-07
125                      24                       4                       0   -1.74650948562668e-09    4.04979721819507e-09    3.63362728719864e-09
126                      26                       6                5.656854   -3.13396156485481e-06     4.6357195992957e-06    1.77365381656241e-06
127                      26                       6                2.828427   -8.67785692666115e-08    1.26300302405019e-07    9.28651661775697e-08
128                      26                       6                       0   -3.38437709185474e-08    4.86686625588984e-08    5.29656394151834e-08
129                      28                       4                5.656854   -1.06247290756491e-08    1.45193430174953e-08    4.44460627684714e-09
130                      28                       4                2.828427   -1.28121972942812e-08    1.76973192703833e-08    1.04340142953831e-08
131                      28                       4                       0   -1.37488428348919e-10    1.90957932176623e-10    1.73711351814313e-10
132                      30                       6                5.656854   -9.52683842854025e-08    8.78652817015821e-08    3.28480874525497e-08
133                      30                       6                2.828427   -3.53978612578923e-09    3.22437343137494e-09     2.3302579511137e-09
134                      30                       6                       0   -9.99957870771054e-10    9.41284582761508e-10    1.04428424903615e-09
135                       0                       8                5.656854   -5.02175416620485e-10    1.23925873627692e-08    5.91775881299811e-09
136                       0                       8                2.828427    -6.3184541767107e-10    1.39224913040896e-08    1.30113921761055e-08
137                       0                       8                       0   -6.88700701930807e-12    1.40153248147896e-10    2.08898498089397e-10
138                       2                      10                5.656854    3.01494041082766e-06    1.54524439589754e-06    1.05000923157027e-06
139                       2                      10                2.828427    8.53913599789658e-08    4.42877047747479e-08    5.70686336010244e-08
140                       2                      10                       0    3.45807667295566e-08    1.79948572454025e-08    3.38527084645616e-08
141                       4                       8                5.656854    9.47189469543181e-07    8.43067878207389e-07     4.1464886247669e-07
142                       4                       8                2.828427     7.9254285169602e-07    7.02592086819018e-07    6.59217268160197e-07
143                       4                       8                       0    9.30849298554155e-09    8.20655372876017e-09    1.12974501616691e-08
144                       6                      10                5.656854    0.000258636734401993    0.000221584151852407    0.000159824630281466
145                       6                      10                2.828427    3.72898484676432e-06    3.16961721040679e-06    4.27923834841267e-06
146                       6                      10                       0    8.34732069353823e-07    7.03001604908199e-07    1.36044932165543e-06
147                       8                       8                5.656854    2.18012071819924e-05    3.63582329408163e-05    1.87705621586774e-05
148                       8                       8                2.828427    1.14726692759163e-05    1.84871940461782e-05    1.81106673817013e-05
149                       8                       8                       0    8.80176549172232e-08    1.37484609748669e-07    1.95535191722823e-07
150                      10                      10                5.656854     0.00274844319358664     0.00543269630009902     0.00429365211461929
151                      10                      10                2.828427    2.35014248893547e-05    4.43687458145947e-05    6.45771822850125e-05
152                      10                      10                       0    3.43745708962818e-06    6.14096546443807e-06    1.26159268657001e-05
153                      12                       8                5.656854    6.22273638125521e-05    0.000276203778827217    0.000155244728955156
154                      12                       8                2.828427    2.36737293912344e-05    0.000100376288313568    0.000105122841838203
155                      12                       8                       0    1.43105187528281e-07    5.73376017753541e-07    8.58139606626231e-07
156                      14                      10                5.656854     0.00111187703942246      0.0148894684853603      0.0130422990593207
157                      14                      10                2.828427     1.0529580556038e-05    0.000108973336137957    0.000173443767765961
158                      14                      10                       0    1.63005818525158e-06     1.3162226101138e-05     2.8847400953748e-05
159                      16                       8                5.656854    1.41288532923622e-06    0.000422763612103729    0.000243351193371154
160                      16                       8                2.828427    8.14487348350274e-07    0.000147471334366623    0.000158455128226766
161                      16                       8                       0    4.70444255761227e-09    8.13574442877741e-07    1.24626276019148e-06
162                      18                      10                5.656854    -0.00104559360796107        0.01512292787086      0.0132350815925857
163                      18                      10                2.828427   -9.70849898920669e-06    0.000111262960962765     0.00017748099159243
164                      18                      10                       0   -1.54215419484237e-06     1.3329794345894e-05    2.93248175680802e-05
165                      20                       8                5.656854   -6.40233304901755e-05    0.000285938803473685     0.00016046729847909
166                      20                       8                2.828427   -2.42973515006149e-05    0.000103335176435971     0.00010849429443306
167                      20                       8                       0   -1.45738206035129e-07    5.86161848250828e-07    8.80249294660542e-07
168                      22                      10                5.656854    -0.00281243131445613     0.00550179882663527     0.00436220861401827
169                      22                      10                2.828427   -2.40737047482069e-05    4.50126509362528e-05    6.58797626009182e-05
170                      22                      10                       0   -3.50534831800068e-06    6.22345800393193e-06    1.28505173960879e-05
171                      24                       8                5.656854   -2.22668348045184e-05     3.7217664053353e-05    1.92040176712617e-05
172                      24                       8                2.828427   -1.17369978780147e-05    1.89056061479672e-05     1.8555933676983e-05
173                      24                       8                       0    -8.9949117187739e-08    1.40309544435204e-07    2.00073788898739e-07
174                      26                      10                5.656854    -0.00026717399735994    0.000231002688031841    0.000166723060695397
175                      26                      10                2.828427   -3.82324584485113e-06    3.26922191846838e-06    4.41992840862834e-06
176                      26                      10                       0    -8.5195941819233e-07     7.2004009877697e-07    1.39578524859114e-06
177                      28                       8                5.656854   -9.82558420217351e-07    8.79983910291418e-07    4.32840062100407e-07
178                      28                       8                2.828427   -8.17396716199922e-07    7.27784346411072e-07     6.8376688749813e-07
179                      28                       8                       0   -9.57484943176863e-09    8.47067968273628e-09    1.16705769092105e-08
180                      30                      10                5.656854   -3.15839312872197e-06    1.61454356749319e-06    1.10317562779226e-06
181                      30                      10                2.828427    -8.8841176214943e-08    4.59901897370627e-08    5.95465071801799e-08
182                      30                      10                       0   -3.58683537620368e-08    1.86640337574441e-08    3.52011059639892e-08
183                       0                      12                5.656854   -4.00249370853028e-09    6.02059939373374e-08    6.33817957058076e-08
184                       0                      12                2.828427   -4.12118178820789e-09    6.73535251777724e-08    1.33669752885162e-07
185                       0                      12                       0   -7.37555294335421e-11    1.00125597337908e-09    2.82205459650369e-09
186                       2                      14                5.656854    1.81931157567313e-05    2.70467769464113e-06    6.32892030929751e-06
187                       2                      14                2.828427    4.39650082690004e-07    6.91625491798843e-08    2.94672056046621e-07
188                       2                      14                       0    1.53254134750824e-07    2.51638153331536e-08     1.4965177930255e-07
189                       4                      12                5.656854    2.19746414209216e-05    8.52332812862285e-06    9.84815499864349e-06
190                       4                      12                2.828427    1.22005155084127e-05    4.91212580392896e-06    1.03776909947316e-05
191                       4                      12                       0    9.77872522997063e-08    4.05634716897591e-08    1.20681727646512e-07
192                       6                      14                5.656854     0.00301275098390069    0.000656107810629988     0.00190060749657356
193                       6                      14                2.828427    2.82836082628825e-05    6.89546443997017e-06    3.33209051871009e-05
194                       6                      14                       0    4.37305997415724e-06    1.14221498335024e-06     7.3170061063308e-06
195                       8                      12                5.656854     0.00124439697618955    0.000982690241391928     0.00126587495961423
196                       8                      12                2.828427    0.000273443879352702    0.000213398777618576    0.000488993567985985
197                       8                      12                       0    1.10017717468332e-06    8.45112634311711e-07     2.6664848730573e-06
198                      10                      14                5.656854     -0.0141922764978895    -0.00623941496847806      -0.108006684027786
199                      10                      14                2.828427    0.000182215286645282    0.000112311503009042    0.000621924474447042
200                      10                      14                       0    1.71924219612929e-05    1.02837455552996e-05    7.24218549073812e-05
201                      12                      12                5.656854     0.00191916010716789     0.00563052170700322     0.00801906836052393