ITEM: TIMESTEP
0
ITEM: NUMBER OF ATOMS
422
ITEM: BOX BOUNDS pp pp pp
0.0000000000000000e+00 3.2000000000000000e+01
0.0000000000000000e+00 3.2000000000000000e+01
0.0000000000000000e+00 3.2000000000000000e+01
ITEM: ATOMS id xu yu zu fx fy fz
1        13.1459321938386        16.8835208156773                 8.65685     -0.0190456160885536     -0.0246298608189243      0.0488584645134251
2        18.8274848400711        16.8892262416344                 8.65685      0.0191421662077449     -0.0254214203538985      0.0511098679482418
3         17.402344993917         16.887795112765                 8.65685     -0.0169973854891946     -0.0312290958012754      0.0656188558233315
4         14.571072038949        16.8849519429358                 8.65685      0.0164986951341504     -0.0317921182244834      0.0668631916540428
5        16.7010751677692        15.6497248501637                 8.65685    -0.00620313061289934     0.00611043273008424     0.00375982357234778
6        15.2748269908674        15.6482926087119                 8.65685     0.00639748922574129     0.00639066783950926     0.00427927603009486
7        15.2723418650276        18.1230222053877                 8.65685      0.0341161745366541     0.00344195174289727      0.0641451243874336
8        16.6985900414216        18.1244544465825                 8.65685     -0.0330916467883861     0.00332991260015049      0.0607162565258091
9        14.5177569207574        14.4484462411751                 8.65685      0.0298258051597329      0.0258260773602635        0.14808452020335
10        17.4605534827313        14.4514014038861                 8.65685      -0.030580068408768      0.0255803391853606       0.145444290304962
11        14.5128635507729         19.321345651893                 8.65685      0.0113567223104976      0.0277293508658438      0.0481200834562065
12        17.4556601106552        19.3243008141789                 8.65685     -0.0117441163293083      0.0270646407425118      0.0465816674622862
13        13.1273112602358        14.4624445878976                 8.65685     -0.0365130269017389      0.0193667310728667       0.103337099785482
14        13.1224488081137        19.3045547622743                 8.65685     -0.0143685011442546      0.0205054639333357      0.0328319147631806
15         18.850968226168        14.4681922935721                 8.65685      0.0363421682314705      0.0200065886988934       0.105747734137585
16        18.8461057714963        19.3103024705805                 8.65685      0.0142228853140751      0.0210911842171705      0.0339587365339547
17         12.426795838139        18.0943199436399                 8.65685      -0.021706036498497     0.00165110359425432      0.0348926599202892
18        12.4292290587396        15.6712798150634                 8.65685    -0.00377069941667517     0.00348418433280678   -0.000904187309133273
19        19.5466211966922        15.6784271122721                 8.65685      0.0039301991563604      0.0035692823905252   -0.000691829248919683
20        19.5441879750283        18.1014672429596                 8.65685      0.0230486291207611     0.00185640371502288      0.0370880937294446
21        20.9551350226241        15.7244350858224                 8.65685    -0.00690480715023888     0.00716388412466423     0.00756339962150056
22        20.9527913622507        18.0582882295758                 8.65685     -0.0402586489863536     0.00225879889027897      0.0945459112305392
23        11.0206256731611        15.7144588294926                 8.65685     0.00709358872916221     0.00766399528763701     0.00836516721973332
24        11.0182820131454        18.0483119722736                 8.65685      0.0407326586439727     0.00194446162329329      0.0987731391237383
25        21.5867264607395        16.8919970781177                 8.65685    -0.00534090352068719     -0.0143830736799182      0.0233822447767129
26        10.3866905744716        16.8807499786644                 8.65685     0.00498438921298824     -0.0144849597997436      0.0232971729432173
27         21.609196045824        19.0859221409264                 8.65685    -0.00527418741300212      0.0147350049176148      0.0249989419359154
28        21.6136022867001        14.6981215696947                 8.65685    -0.00822187435123199      0.0149216032076433      0.0470685207626475
29        10.3598147507275        19.0746254872963                 8.65685     0.00500874283854435      0.0150475648110024      0.0262049409776712
30        10.3642209902605        14.6868249167297                 8.65685     0.00791323785726253      0.0149899955504388      0.0483659482932631
31        12.5998668222426        13.5154548000933                 8.65685    -0.00263024432631551   -0.000796469805196063    -0.00538398637464257
32        12.5931035005993        20.2504833212092                 8.65685   -7.85331257545652e-05   -0.000205410101057235     -0.0100014793362328
33        19.3803135329519        13.5222637346313                 8.65685     0.00272094501856903    -0.00082771417431988    -0.00513639686529829
34        19.3735502071424         20.257292260389                 8.65685    9.65590052936643e-05   -0.000239100927351937    -0.00995027291470181
35        14.9622865728669        13.4689605638796                 8.65685     0.00371503334292378    -0.00196672692697059    0.000327156353910533
36         14.955425108682        20.3017221461408                 8.65685    0.000334216935743592   -0.000781535023711699    -0.00904568461951032
37        17.0179919240215        13.4710249097393                 8.65685    -0.00369729270378283    -0.00190457866625413     3.8927163037483e-05
38         17.011130457531        20.3037864905846                 8.65685   -0.000323388890543619   -0.000742613261529829    -0.00911976087071584
39                       0                       0                5.656854                       0                       0                       0
40                       0                       0                2.828427                       0                       0                       0
41                       0                       0                       0                       0                       0                       0
42                       2                       2                5.656854                       0                       0                       0
43                       2                       2                2.828427                       0                       0                       0
44                       2                       2                       0                       0                       0                       0
45                       4                       0                5.656854    1.26479613110782e-10   -2.26213862900979e-10    5.39772245401809e-11
46                       4                       0                2.828427                       0                       0                       0
47                       4                       0                       0                       0                       0                       0
48                       6                       2                5.656854    4.54300410447569e-09    9.90304695573254e-09    2.39637567848487e-09
49                       6                       2                2.828427    1.26232223639096e-10    2.93429661232475e-10    1.39962362504344e-10
50                       6                       2                       0                       0                       0                       0
51                       8                       0                5.656854    1.55704743839201e-09   -4.31041980096363e-09    1.08190608845425e-09
52                       8                       0                2.828427    1.64615726082505e-09   -4.80765262156175e-09    2.27010390641081e-09
53                       8                       0                       0                       0                       0                       0
54                      10                       2                5.656854    2.06134972975711e-08    8.19726185582374e-08    2.08135687521985e-08
55                      10                       2                2.828427    7.48417024454093e-10    3.13589989948466e-09    1.50492987405165e-09
56                      10                       2                       0     1.1284760840064e-10    4.99830038492223e-10    3.75751869451682e-10
57                      12                       0                5.656854    2.93867646358409e-09    -1.7855473435137e-08    4.87429047034825e-09
58                      12                       0                2.828427    3.20967857764257e-09   -2.07394688737689e-08    1.06675874867606e-08
59                      12                       0                       0    2.10420115379171e-11   -1.59097465927824e-10    1.17428085963251e-10
60                      14                       2                5.656854    1.25271358437429e-08     1.9667240335634e-07    5.12371160073896e-08
61                      14                       2                2.828427    4.93839174791215e-10    7.49921832239866e-09    3.74558110989272e-09
62                      14                       2                       0    1.03954322458626e-10    1.83386455464551e-09     1.3821777700423e-09
63                      16                       0                5.656854    7.86822872126898e-13   -2.64108833346911e-08    7.21679386925477e-09
64                      16                       0                2.828427   -4.38486847780957e-12   -3.14239463196651e-08    1.60147024667454e-08
65                      16                       0                       0   -6.62051046692629e-14   -2.99398147630208e-10    2.21253069950485e-10
66                      18                       2                5.656854   -1.28432809564942e-08    1.95546791397247e-07    5.09510233174991e-08
67                      18                       2                2.828427   -5.05753506194203e-10    7.45946724920734e-09    3.72638666509023e-09
68                      18                       2                       0   -1.06775406445909e-10    1.82558366814911e-09    1.37561609267091e-09
69                      20                       0                5.656854   -2.94987382984653e-09   -1.78587090286974e-08     4.8703337084151e-09
70                      20                       0                2.828427   -3.23223329346315e-09   -2.07389361457726e-08    1.06620721497326e-08
71                      20                       0                       0   -2.13972787751124e-11   -1.59130680570491e-10    1.17499926991022e-10
72                      22                       2                5.656854   -2.04361533519841e-08    8.06417084480336e-08    2.04742627235166e-08
73                      22                       2                2.828427   -7.42713930479047e-10    3.08917904980894e-09    1.48180203143759e-09
74                      22                       2                       0   -1.12133869536167e-10    4.93202539552882e-10    3.70550484076815e-10
75                      24                       0                5.656854   -1.55499246968619e-09    -4.2891571861103e-09    1.07609574463052e-09
76                      24                       0                2.828427   -1.64598047503066e-09   -4.78386088249558e-09    2.25958969768018e-09
77                      24                       0                       0                       0                       0                       0
78                      26                       2                5.656854   -4.44610764490314e-09    9.65714537383248e-09    2.33542235667371e-09
79                      26                       2                2.828427   -1.23711127204248e-10    2.86524222980596e-10    1.36572104733249e-10
80                      26                       2                       0                       0                       0                       0
81                      28                       0                5.656854   -1.25603187120574e-10   -2.23774328500237e-10    5.34203927462073e-11
82                      28                       0                2.828427                       0                       0                       0
83                      28                       0                       0                       0                       0                       0
84                      30                       2                5.656854                       0                       0                       0
85                      30                       2                2.828427                       0                       0                       0
86                      30                       2                       0                       0                       0                       0
87                       0                       4                5.656854                       0                       0                       0
88                       0                       4                2.828427                       0                       0                       0
89                       0                       4                       0                       0                       0                       0
90                       2                       6                5.656854    3.78918058812526e-08     3.7937291795987e-08    1.27959520231652e-08
91                       2                       6                2.828427    1.34872431355898e-09    1.38130484827269e-09    9.03116614363712e-10
92                       2                       6                       0    4.86909332151896e-10     5.0568918774988e-10    5.03944247401798e-10
93                       4                       4                5.656854    3.55730507117695e-09    5.27506961280839e-09    1.47729446290839e-09
94                       4                       4                2.828427    3.69681026702809e-09    5.69243999942797e-09    3.11464731734744e-09
95                       4                       4                       0                       0                       0                       0
96                       6                       6                5.656854    1.07096703778321e-06    1.71890189046113e-06    5.91828489163566e-07
97                       6                       6                2.828427    3.31317062602726e-08    5.26655845249971e-08    3.50423833389171e-08
98                       6                       6                       0    1.45804903068352e-08     2.2844232126744e-08    2.26123741668335e-08
99                       8                       4                5.656854     3.7304308765142e-08    9.31341818419587e-08    2.67611114911349e-08
100                       8                       4                2.828427    4.13207738841135e-08    1.03089594114513e-07    5.74673580617889e-08
101                       8                       4                       0    5.21338082165253e-10    1.36634517597678e-09    1.13998423975363e-09
102                      10                       6                5.656854    6.28630706684502e-06     2.0035093223304e-05    7.21211635488826e-06
103                      10                       6                2.828427    1.54240348056405e-07    4.84432309233219e-07     3.3470297350768e-07
104                      10                       6                       0    5.49993760662007e-08    1.68892955939461e-07    1.71321213822365e-07
105                      12                       4                5.656854    7.15889407670337e-08    4.48781003673455e-07    1.32431263163803e-07
106                      12                       4                2.828427    7.27229748041269e-08    4.47329196261488e-07    2.54925622878368e-07
107                      12                       4                       0    9.54463255396468e-10    6.05058322268545e-09    5.11467272610264e-09
108                      14                       6                5.656854    3.64868946674202e-06    5.48860375373068e-05    2.03011816666663e-05
109                      14                       6                2.828427     8.8273510822986e-08     1.2014341035703e-06    8.51111803288621e-07
110                      14                       6                       0    3.11641440934021e-08    3.81064029009211e-07    3.94789988550303e-07
111                      16                       4                5.656854   -6.80989761409917e-10    6.71002972122817e-07    1.99712774445815e-07
112                      16                       4                2.828427   -6.69149561039451e-10    6.58673475841767e-07     3.7824926720146e-07
113                      16                       4                       0   -9.00896086870472e-12    8.84775551220979e-09    7.53278889567491e-09
114                      18                       6                5.656854   -3.74819355485141e-06    5.45579503849918e-05     2.0172337094581e-05
115                      18                       6                2.828427   -9.04762203573175e-08    1.19520034747504e-06     8.4640800709861e-07
116                      18                       6                       0   -3.18738441538582e-08    3.79382657361725e-07    3.92927382221602e-07
117                      20                       4                5.656854   -7.16635963542075e-08    4.43574144902702e-07    1.30833860237572e-07
118                      20                       4                2.828427   -7.28633699872567e-08    4.42651200931449e-07    2.52147564927272e-07
119                      20                       4                       0    -9.5791886981524e-10    5.99537448230973e-09    5.06573399840767e-09
120                      22                       6                5.656854   -6.21570062335146e-06    1.96674482472593e-05    7.07394862713295e-06
121                      22                       6                2.828427   -1.52846729949536e-07    4.76655702646131e-07    3.29077796217726e-07
122                      22                       6                       0   -5.39364393831626e-08    1.65924873486064e-07    1.68184199000214e-07
123                      24                       4                5.656854    -3.6657932692739e-08    9.10741636461981e-08    2.61512893550793e-08
124                      24                       4                2.828427   -4.06811782763311e-08    1.01004533207307e-07    5.62671148876246e-08
125                      24                       4                       0   -5.14557257748087e-10    1.34187942677759e-09    1.11876181115389e-09
126                      26                       6                5.656854   -1.04423777649402e-06     1.6702487072213e-06    5.74521029295502e-07
127                      26                       6                2.828427    -3.2395975449506e-08    5.13234219927595e-08    3.41177139547229e-08
128                      26                       6                       0   -1.43028623843981e-08    2.23366602964144e-08    2.20897220982436e-08
129                      28                       4                5.656854   -3.45976246471193e-09    5.11734538663784e-09     1.4319755548839e-09
130                      28                       4                2.828427   -3.60205844664514e-09    5.53272838178868e-09    3.02462112134406e-09
131                      28                       4                       0                       0                       0                       0
132                      30                       6                5.656854   -3.66662088397584e-08    3.66498975356021e-08     1.2348775878896e-08
133                      30                       6                2.828427    -1.3080949721586e-09     1.3375293513487e-09     8.7355964994526e-10
134                      30                       6                       0    -4.7379129906462e-10    4.91402203760511e-10    4.89070557767966e-10
135                       0                       8                5.656854     1.8400752565307e-10    6.70879808010313e-09    2.85576010729707e-09
136                       0                       8                2.828427    2.11171141303412e-10    8.37833061480789e-09    6.90261278956137e-09
137                       0                       8                       0                       0                       0                       0
138                       2                      10                5.656854    1.69377895455512e-06    1.01558257598541e-06    5.85476617918859e-07
139                       2                      10                2.828427    5.11237949538234e-08    3.08029303906772e-08    3.40331992988102e-08
140                       2                      10                       0    2.18019419208719e-08    1.30047277789901e-08    2.13029937926354e-08
141                       4                       8                5.656854    4.06551974314319e-07    4.07375645213666e-07    1.75696580332808e-07
142                       4                       8                2.828427    3.76661168176179e-07    3.75066535186611e-07    3.11597547496486e-07
143                       4                       8                       0    4.54984607123687e-09      4.510234057046e-09    5.58811768286534e-09
144                       6                      10                5.656854    0.000115913399782238    0.000116879010459665    7.05209068741423e-05
145                       6                      10                2.828427    1.93830777169592e-06    1.92499350668679e-06    2.20993694341052e-06
146                       6                      10                       0    4.86322621148017e-07    4.76090640944056e-07    7.92316656942902e-07
147                       8                       8                5.656854    7.66919850788009e-06     1.4122534359664e-05    6.36665650008091e-06
148                       8                       8                2.828427    4.80438032010997e-06    8.61586480685985e-06    7.44248297826915e-06
149                       8                       8                       0    4.26011601113751e-08    7.44207462249528e-08    9.39853161163381e-08
150                      10                      10                5.656854     0.00110395077495772     0.00248443653653714     0.00163297429951939
151                      10                      10                2.828427    1.13763542076662e-05    2.46106780443063e-05    3.02204592284936e-05
152                      10                      10                       0    1.93221335222135e-06     3.9817797357048e-06     6.9800627051465e-06
153                      12                       8                5.656854    1.91694796993124e-05     9.5844206028113e-05    4.62377050885936e-05
154                      12                       8                2.828427    9.26154725557432e-06    4.41202915303439e-05    4.02278472377133e-05
155                      12                       8                       0    6.69800327587105e-08    3.01505851059786e-07    3.96774777356981e-07
156                      14                      10                5.656854     0.00045856561804583     0.00736275190786894     0.00524017655160213
157                      14                      10                2.828427    4.99936362350587e-06    6.08845363423362e-05    7.97746180341065e-05
158                      14                      10                       0    8.98564176270889e-07    8.59674037274599e-06    1.58279427497839e-05
159                      16                       8                5.656854   -1.56988780980746e-07    0.000142286193593707    6.99627015716238e-05
160                      16                       8                2.828427   -7.24952334143921e-08    6.35070568337386e-05    5.89759316674229e-05
161                      16                       8                       0   -4.99196760655671e-10     4.2206399868563e-07     5.6459883353018e-07
162                      18                      10                5.656854   -0.000477199740416358     0.00732769409196214     0.00521084387028795
163                      18                      10                2.828427   -5.15163050164898e-06     6.0641928012183e-05    7.93985327474857e-05
164                      18                      10                       0   -9.20059310940034e-07      8.568505111544e-06    1.57663390631427e-05
165                      20                       8                5.656854   -1.91774481017056e-05    9.46185634879955e-05    4.56030782663158e-05
166                      20                       8                2.828427   -9.28028415292016e-06    4.36603751143861e-05    3.97748442535294e-05
167                      20                       8                       0   -6.71936086234569e-08    2.98939690749469e-07    3.93103669637187e-07
168                      22                      10                5.656854    -0.00109003403155443      0.0024362110662031     0.00159828208373661
169                      22                      10                2.828427   -1.12775260509272e-05    2.42309878758901e-05    2.97071091436249e-05
170                      22                      10                       0   -1.92103191538427e-06    3.93292609877916e-06    6.88524370375589e-06
171                      24                       8                5.656854   -7.50979561821215e-06    1.37621682685204e-05    6.19618792439627e-06
172                      24                       8                2.828427   -4.72227946798595e-06    8.42945159873007e-06    7.27286513824325e-06
173                      24                       8                       0    -4.2020075559344e-08    7.30781911646031e-08    9.21907036060833e-08
174                      26                      10                5.656854   -0.000112521996448471    0.000113135726112184    6.81332413018521e-05
175                      26                      10                2.828427   -1.89198777008572e-06    1.87371488924733e-06    2.14746623239363e-06
176                      26                      10                       0   -4.76968611196597e-07    4.65634868359709e-07    7.73776958650958e-07
177                      28                       8                5.656854   -3.93790445129337e-07     3.9374563461805e-07    1.69593719360836e-07
178                      28                       8                2.828427   -3.65362416481643e-07    3.63165971396821e-07    3.01457080803694e-07
179                      28                       8                       0   -4.44149031493489e-09    4.39386426719402e-09     5.4370554334047e-09
180                      30                      10                5.656854   -1.63354834858593e-06    9.79077539169242e-07    5.63494898352517e-07
181                      30                      10                2.828427   -4.94944503718458e-08    2.98015530695138e-08    3.28773093756276e-08
182                      30                      10                       0   -2.12048449652068e-08    1.26344939303826e-08    2.06644858612955e-08
183                       0                      12                5.656854    2.90457022785434e-09    5.18863992908462e-08    4.35351667380878e-08
184                       0                      12                2.828427    2.94928873763125e-09     5.8274311676492e-08    9.38526231874144e-08
185                       0                      12                       0    3.32005963488232e-11    7.23676418017788e-10    1.83188701279222e-09
186                       2                      14                5.656854    1.51409054639921e-05    3.26792760106501e-06    5.24687151561702e-06
187                       2                      14                2.828427    3.72543404098487e-07    8.43386285207032e-08    2.49702486001962e-07
188                       2                      14                       0    1.31141833070971e-07    3.05657781358807e-08    1.28483598676916e-07
189                       4                      12                5.656854    1.39544488756818e-05    6.84508179300504e-06     6.2194971552687e-06
190                       4                      12                2.828427    8.26924410168225e-06    4.14722686746629e-06    7.03231462984096e-06
191                       4                      12                       0     7.0195259125496e-08    3.59041730795133e-08    8.67455431102359e-08
192                       6                      14                5.656854     0.00235022868525384     0.00077567733236192     0.00148335629351202
193                       6                      14                2.828427    2.28005904693299e-05    8.15717060230351e-06    2.69586918987386e-05
194                       6                      14                       0    3.63466037773852e-06    1.37219135112413e-06    6.10707685596128e-06
195                       8                      12                5.656854    0.000659583712035472    0.000672931633871463    0.000664083221348465
196                       8                      12                2.828427    0.000167337158693377    0.000164303980839631    0.000297583465621486
197                       8                      12                       0    7.46896960059525e-07    7.10596707757028e-07    1.80726578106507e-06
198                      10                      14                5.656854     0.00243090279003915     -0.0112014217598155     -0.0549124780917136
199                      10                      14                2.828427    0.000141181071848435    0.000129749741258247    0.000479461705276245
200                      10                      14                       0     1.3979297046007e-05     1.2148054266793e-05    5.87547367535185e-05
201                      12                      12                5.656854     0.00145520151314091     0.00461853083700485     0.00527286361746785