ITEM: TIMESTEP
0
ITEM: NUMBER OF ATOMS
422
ITEM: BOX BOUNDS pp pp pp
0.0000000000000000e+00 3.2000000000000000e+01
0.0000000000000000e+00 3.2000000000000000e+01
0.0000000000000000e+00 3.2000000000000000e+01
ITEM: ATOMS id xu yu zu fx fy fz
1        12.9459321938386        15.9835208156773                 8.65685    -0.00551715083704051    0.000427589158534163     0.00410540343101165
2        18.6274848400711        15.9892262416344                 8.65685     0.00556567111905723    0.000444178890034593      0.0121925627347768
3         17.202344993917         15.987795112765                 8.65685    -0.00593453118311955    0.000431172636516445     0.00894084933557873
4         14.371072038949        15.9849519429358                 8.65685     0.00395462463682951    0.000728597200977775      0.0163556829765124
5        16.5010751677692        14.7497248501637                 8.65685     -0.0177655598901453      0.0102344083681451      0.0253068505220055
6        15.0748269908674        14.7482926087119                 8.65685      0.0280367428748556       0.019691230874139      0.0597977471307552
7        15.0723418650276        17.2230222053877                 8.65685      0.0273057581189717     -0.0199506993432004        0.05805742790322
8        16.4985900414216        17.2244544465825                 8.65685      -0.017248903905766      -0.010269589904458      0.0242621455849396
9        14.3177569207574        13.5484462411751                 8.65685      0.0202889606135399     -0.0288470392388718        0.16614644630808
10        17.2605534827313        13.5514014038861                 8.65685     -0.0357410570113371     -0.0216721788855233       0.121592594206739
11        14.3128635507729         18.421345651893                 8.65685      0.0203514779850927      0.0274196050514341       0.169598152839971
12        17.2556601106552        18.4243008141789                 8.65685     -0.0362937336283822      0.0206772033660783       0.122805225029706
13        12.9273112602358        13.5624445878976                 8.65685     -0.0353833664928322     -0.0145751450188106      0.0791912750976339
14        12.9224488081137        18.4045547622743                 8.65685     -0.0359197686064449      0.0136246755931766      0.0802210222205488
15         18.650968226168        13.5681922935721                 8.65685      0.0343205946876461      -0.022750456739825       0.134073282211859
16        18.6461057714963        18.4103024705805                 8.65685      0.0345919550216106      0.0219506251420912       0.136405880441865
17         12.226795838139        17.1943199436399                 8.65685    -0.00788457130431302     -0.0068630214685024      0.0117988225157581
18        12.2292290587396        14.7712798150634                 8.65685    -0.00824917689756888     0.00684767047340868      0.0126463496354787
19        19.3466211966922        14.7784271122721                 8.65685      0.0216793313056901      0.0132628128926653      0.0344771824840061
20        19.3441879750283        17.2014672429596                 8.65685      0.0213103960103455      -0.013378950119686      0.0337405713094355
21        20.7551350226241        14.8244350858224                 8.65685     -0.0230676865881734       0.015720812971323      0.0400334536211097
22        20.7527913622507        17.1582882295758                 8.65685     -0.0226007373309313     -0.0156967478303251      0.0389170945859274
23        10.8206256731611        14.8144588294926                 8.65685      0.0273711378521038      0.0271669181212017      0.0793807120466153
24        10.8182820131454        17.1483119722736                 8.65685      0.0263114631885387     -0.0273759365525774      0.0760322440583032
25        21.3867264607395        15.9919970781177                 8.65685    -0.00193644528910482    0.000133767307993641    -0.00346392071657956
26        10.1866905744716        15.9807499786644                 8.65685    0.000768908638949553    0.000402349482473086    -0.00111697517357703
27         21.409196045824        18.1859221409264                 8.65685     -0.0148704058905008     0.00465961731318316      0.0580314451846761
28        21.4136022867001        13.7981215696947                 8.65685     -0.0147491163866183    -0.00505670802461621      0.0579846850722997
29        10.1598147507275        18.1746254872963                 8.65685     0.00496103165872054     0.00542116550628001      0.0753037664770721
30        10.1642209902605        13.7868249167297                 8.65685     0.00504363950085791    -0.00654882533015382      0.0743468648969384
31        12.3998668222426        12.6154548000933                 8.65685   -0.000366800673957254   -0.000243893011631824    -0.00972509014412666
32        12.3931035005993        19.3504833212092                 8.65685   -0.000404009161211838    0.000254810636261548    -0.00967437936669478
33        19.1803135329519        12.6222637346313                 8.65685    0.000801684983337031    -0.00102647315872479    -0.00838503208588928
34        19.1735502071424         19.357292260389                 8.65685    0.000856181692189926     0.00107493565511656    -0.00825521423882246
35        14.7622865728669        12.5689605638796                 8.65685     0.00087516146669349    -0.00191531850264059    -0.00686498108432409
36         14.755425108682        19.4017221461408                 8.65685    0.000944634284879234     0.00202229109550181    -0.00658765690989586
37        16.8179919240215        12.5710249097393                 8.65685   -0.000685274893119856   -0.000940339686563408    -0.00862971934946758
38         16.811130457531        19.4037864905846                 8.65685   -0.000734744148839587    0.000965657001517951    -0.00854208912674589
39                       0                       0                5.656854                       0                       0                       0
40                       0                       0                2.828427                       0                       0                       0
41                       0                       0                       0                       0                       0                       0
42                       2                       2                5.656854      6.461610038632e-10    9.32873648280661e-10    2.37436055351526e-10
43                       2                       2                2.828427                       0                       0                       0
44                       2                       2                       0                       0                       0                       0
45                       4                       0                5.656854                       0                       0                       0
46                       4                       0                2.828427                       0                       0                       0
47                       4                       0                       0                       0                       0                       0
48                       6                       2                5.656854    1.97751547271348e-08    4.10771945142929e-08    1.06114291041461e-08
49                       6                       2                2.828427    7.19538895113593e-10    1.51725464411132e-09    7.66749994451641e-10
50                       6                       2                       0                       0                       0                       0
51                       8                       0                5.656854    7.08361089226256e-10    5.16381429606021e-11    5.16643058347105e-10
52                       8                       0                2.828427    4.12127143411709e-10    2.38951158818976e-11    5.46348153204555e-10
53                       8                       0                       0                       0                       0                       0
54                      10                       2                5.656854    7.99072657630072e-08    3.22686205091925e-07    8.53595227999382e-08
55                      10                       2                2.828427     2.8607070062726e-09    1.16339852724515e-08    5.97507723252088e-09
56                      10                       2                       0    9.59841432280409e-10    4.39373048590094e-09    3.41528615452017e-09
57                      12                       0                5.656854    1.31857235713948e-09     2.1954687265208e-10     2.2956108933007e-09
58                      12                       0                2.828427    1.61837894156133e-09    2.46287912446552e-10    5.39628126833519e-09
59                      12                       0                       0                       0                       0                       0
60                      14                       2                5.656854    4.33462817343131e-08    7.51972953549849e-07    2.01865920113193e-07
61                      14                       2                2.828427     1.4600028154642e-09    2.60353836719154e-08    1.35476392379728e-08
62                      14                       2                       0    6.89120851651746e-10    1.10894515207496e-08    8.69215186101206e-09
63                      16                       0                5.656854   -1.11313704424681e-10    2.78555957995522e-10    3.29943995912397e-09
64                      16                       0                2.828427   -1.53978356879285e-10    2.91219564733295e-10    7.23067157544962e-09
65                      16                       0                       0                       0                       0                       0
66                      18                       2                5.656854   -5.37882103579798e-08    7.19664912025355e-07    1.93173269446139e-07
67                      18                       2                2.828427   -1.86470750164831e-09    2.50262651526878e-08    1.30073518059207e-08
68                      18                       2                       0   -9.21650193446831e-10     1.0658480608057e-08    8.34883686213809e-09
69                      20                       0                5.656854   -1.25531840492462e-09    3.32975906189258e-10    2.03322579119873e-09
70                      20                       0                2.828427   -1.35514201707289e-09    1.40948834899167e-10    4.04543519483155e-09
71                      20                       0                       0                       0                       0                       0
72                      22                       2                5.656854    -7.3348008242514e-08    2.71434812354376e-07    7.16537777467276e-08
73                      22                       2                2.828427   -2.54270658909805e-09    9.67560125347635e-09    4.96640130822818e-09
74                      22                       2                       0   -9.62471705407972e-10    3.87699366815929e-09    3.00644675243831e-09
75                      24                       0                5.656854   -6.27065678605289e-10    2.75363549932668e-11    4.22571196677819e-10
76                      24                       0                2.828427   -3.66283853913412e-10    1.40801468172832e-11    4.42639490227944e-10
77                      24                       0                       0                       0                       0                       0
78                      26                       2                5.656854   -1.54076595908295e-08     3.0031454045693e-08    7.75922813060648e-09
79                      26                       2                2.828427   -4.82333198936895e-10    9.52350148720979e-10     4.8645163194196e-10
80                      26                       2                       0                       0                       0                       0
81                      28                       0                5.656854                       0                       0                       0
82                      28                       0                2.828427                       0                       0                       0
83                      28                       0                       0                       0                       0                       0
84                      30                       2                5.656854   -4.60404282622782e-10    6.32617528207196e-10    1.60860357552713e-10
85                      30                       2                2.828427                       0                       0                       0
86                      30                       2                       0                       0                       0                       0
87                       0                       4                5.656854     7.2025680469219e-11    3.13740586260228e-10    9.61298703315689e-11
88                       0                       4                2.828427                       0                       0                       0
89                       0                       4                       0                       0                       0                       0
90                       2                       6                5.656854    1.23442360245914e-07    1.14631116734199e-07    4.26373654257522e-08
91                       2                       6                2.828427    4.48982231993464e-09    4.15545223407318e-09    3.00791075977924e-09
92                       2                       6                       0    1.26466216896233e-09    1.20620239215341e-09    1.34097187109976e-09
93                       4                       4                5.656854    1.30432278603672e-08    1.82363027176841e-08    5.56317213422237e-09
94                       4                       4                2.828427    1.58166050543271e-08    2.22164047722997e-08    1.31258159109731e-08
95                       4                       4                       0     1.6628047519798e-10    2.36906288544397e-10    2.15499970811076e-10
96                       6                       6                5.656854    3.77906374427426e-06    5.76386304224384e-06    2.20269882975007e-06
97                       6                       6                2.828427    1.02802970046695e-07      1.543946014931e-07    1.13803299731749e-07
98                       6                       6                       0    3.96129736233029e-08    5.88840511106102e-08    6.41142551717258e-08
99                       8                       4                5.656854    1.39837514868087e-07     3.3964048001957e-07    1.06552175393105e-07
100                       8                       4                2.828427    1.41301163570862e-07    3.39896347586751e-07     2.0593993877981e-07
101                       8                       4                       0    1.88226429676249e-09    4.59959499112019e-09     4.1325808767418e-09
102                      10                       6                5.656854    2.25452118527683e-05    7.04371829174466e-05    2.83904285898665e-05
103                      10                       6                2.828427    4.63859075750723e-07    1.42375822171026e-06    1.09669316657483e-06
104                      10                       6                       0    1.39194704707292e-07    4.17876794870854e-07    4.70199147698981e-07
105                      12                       4                5.656854    2.53370525336843e-07    1.63470955073327e-06    5.29241625492063e-07
106                      12                       4                2.828427    2.28470235930945e-07    1.42565463808272e-06    8.87970581021889e-07
107                      12                       4                       0    2.86259947013125e-09    1.73759045886521e-08      1.592971490969e-08
108                      14                       6                5.656854    1.06010080769043e-05    0.000185598171753575     7.7197318657229e-05
109                      14                       6                2.828427    2.20854517565488e-07    3.36005062207387e-06    2.66398775765861e-06
110                      14                       6                       0    6.69366007364483e-08    8.94359465789125e-07    1.03136218423363e-06
111                      16                       4                5.656854   -1.63188735088591e-08    2.33825762308722e-06    7.63900794083936e-07
112                      16                       4                2.828427   -1.54088414024663e-08    2.00285837901813e-06    1.25847693459955e-06
113                      16                       4                       0    -2.0640260305444e-10    2.37668035012666e-08    2.20023969410919e-08
114                      18                       6                5.656854   -1.38635525920712e-05    0.000178109476814125    7.39387554994687e-05
115                      18                       6                2.828427    -2.8189821865103e-07    3.23088576375874e-06    2.55682226973669e-06
116                      18                       6                       0   -8.40669179130123e-08    8.62243580449711e-07    9.92520323937315e-07
117                      20                       4                5.656854   -2.64775894651869e-07     1.4682645025244e-06    4.74088261195794e-07
118                      20                       4                2.828427   -2.38692531388941e-07    1.29131075896642e-06    8.02337794604735e-07
119                      20                       4                       0   -2.99687176338211e-09    1.57753923908137e-08    1.44552113759609e-08
120                      22                       6                5.656854   -2.03301230498404e-05    5.75652503465349e-05    2.30506333580341e-05
121                      22                       6                2.828427   -4.29187686655033e-07    1.19470766335922e-06    9.15210951235011e-07
122                      22                       6                       0   -1.32032421780148e-07    3.59588595460387e-07    4.02691292648085e-07
123                      24                       4                5.656854   -1.16163491863114e-07    2.63042928048261e-07    8.21369888536511e-08
124                      24                       4                2.828427    -1.1953402089105e-07    2.68494679685808e-07    1.62052506893783e-07
125                      24                       4                       0   -1.63801324359757e-09    3.65931829957136e-09     3.2916629092639e-09
126                      26                       6                5.656854   -2.79406907735705e-06    4.00909973852013e-06    1.52456224393638e-06
127                      26                       6                2.828427   -7.85050021155393e-08    1.11257587811953e-07    8.16352914177741e-08
128                      26                       6                       0   -3.08053022546022e-08    4.28758075478145e-08    4.68726383142193e-08
129                      28                       4                5.656854   -9.28370645077957e-09     1.2362027503455e-08    3.75935790112332e-09
130                      28                       4                2.828427   -1.07348499119712e-08    1.45176019720975e-08    8.57939149291434e-09
131                      28                       4                       0   -9.32494385864491e-11    1.38720644477761e-10    1.22562656791441e-10
132                      30                       6                5.656854   -7.69990104431875e-08    7.00337785406741e-08    2.59911424536135e-08
133                      30                       6                2.828427    -2.9896794737297e-09    2.65171340634707e-09     1.9140498068542e-09
134                      30                       6                       0    -8.9470221494461e-10    8.12563879961701e-10    9.02043339716981e-10
135                       0                       8                5.656854    5.80997944935308e-09    1.32983276568931e-08    6.33400491999554e-09
136                       0                       8                2.828427    6.07628382122001e-09    1.50070149299856e-08    1.40643063400187e-08
137                       0                       8                       0     5.8155972212408e-11    1.52845983586956e-10    2.28480138077075e-10
138                       2                      10                5.656854    4.18560390459473e-06     2.1595053075806e-06    1.47798080781453e-06
139                       2                      10                2.828427    1.15442066211743e-07    6.02114972292982e-08    7.84486655731338e-08
140                       2                      10                       0    4.48655300044839e-08    2.36124430983619e-08    4.49768323466189e-08
141                       4                       8                5.656854    1.25721171558493e-06    1.14704566785193e-06    5.64020215782577e-07
142                       4                       8                2.828427    1.02242374714723e-06    9.28129623846117e-07    8.76095920269951e-07
143                       4                       8                       0    1.16035286504556e-08    1.04692856461159e-08    1.45226333958148e-08
144                       6                      10                5.656854    0.000337362784866228    0.000298848300391146    0.000216847114725091
145                       6                      10                2.828427    4.63621131628121e-06    4.06287627616629e-06      5.552256526598e-06
146                       6                      10                       0    9.91686142768461e-07    8.59105690423614e-07    1.68484450152012e-06
147                       8                       8                5.656854    2.59316664056388e-05    4.53742742087418e-05    2.34654285547809e-05
148                       8                       8                2.828427     1.3257014685719e-05      2.238628824444e-05    2.20832805245369e-05
149                       8                       8                       0    9.90128498448918e-08    1.61562456498506e-07    2.31529644517867e-07
150                      10                      10                5.656854     0.00299700693042781     0.00630169355939283     0.00503720073837128
151                      10                      10                2.828427    2.49937120516884e-05    5.04054102219793e-05    7.44197547840985e-05
152                      10                      10                       0    3.57290389441327e-06     6.7889435650951e-06    1.41328157048436e-05
153                      12                       8                5.656854    6.00934657948205e-05    0.000304570171864604    0.000171410102594816
154                      12                       8                2.828427    2.28482496242135e-05    0.000109008021233578    0.000114702628507081
155                      12                       8                       0    1.37884369171894e-07    6.13880432351413e-07     9.2391740871699e-07
156                      14                      10                5.656854    0.000782558527605016      0.0152360911178068      0.0133568311779455
157                      14                      10                2.828427    8.05165395325486e-06    0.000112153240829871    0.000179154244307687
158                      14                      10                       0    1.34369931692258e-06    1.34897277994363e-05    2.97263271278322e-05
159                      16                       8                5.656854    -2.0059271652542e-06     0.00042299927863675    0.000243117010640567
160                      16                       8                2.828427   -1.06438516696162e-06    0.000147952536212268    0.000158830859150504
161                      16                       8                       0   -7.92001185669345e-09    8.17160116454224e-07    1.25170777349834e-06
162                      18                      10                5.656854     -0.0012893102278754      0.0148741877023374      0.0129875215078705
163                      18                      10                2.828427   -1.14288594497412e-05    0.000109253171269446    0.000173777735263943
164                      18                      10                       0   -1.74571519104674e-06    1.31214867454226e-05    2.88072778310649e-05
165                      20                       8                5.656854   -6.36744499026805e-05    0.000269120478224241    0.000150454552623524
166                      20                       8                2.828427   -2.43209076052047e-05    9.85030845382114e-05    0.000103027185736104
167                      20                       8                       0   -1.47196643828769e-07     5.6357086281902e-07    8.43940132207647e-07
168                      22                      10                5.656854    -0.00267251515636949      0.0050934089445358     0.00400177658366548
169                      22                      10                2.828427   -2.32068642222497e-05    4.21350486122617e-05    6.14295721573326e-05
170                      22                      10                       0   -3.41664519424555e-06    5.85166447337176e-06     1.2074185232731e-05
171                      24                       8                5.656854   -2.04861797949645e-05    3.31030033208475e-05    1.69671065128946e-05
172                      24                       8                2.828427   -1.09560210696864e-05      1.712290499905e-05    1.67677963454779e-05
173                      24                       8                       0   -8.47770064546907e-08    1.28532579685252e-07    1.83203539214469e-07
174                      26                      10                5.656854    -0.00022675498511382    0.000186733439428424    0.000134393006470673
175                      26                      10                2.828427   -3.37347170142276e-06    2.76287862493554e-06    3.74885623659123e-06
176                      26                      10                       0   -7.70138947015291e-07    6.26377763853909e-07    1.22092159248216e-06
177                      28                       8                5.656854   -8.16343731049324e-07    7.06308156243407e-07    3.45579371115279e-07
178                      28                       8                2.828427   -7.00316087109747e-07    6.03814585764053e-07    5.67512038152959e-07
179                      28                       8                       0   -8.30512073788686e-09    7.12863712097129e-09    9.87544355303294e-09
180                      30                      10                5.656854   -2.43643330584288e-06    1.22025562471852e-06    8.28671975445261e-07
181                      30                      10                2.828427   -7.10554891728864e-08    3.61356641235884e-08    4.68406223041527e-08
182                      30                      10                       0   -2.99358257778693e-08    1.51228957513989e-08    2.86491605989613e-08
183                       0                      12                5.656854    6.91091979496849e-08    6.38668693033272e-08    6.75406208181653e-08
184                       0                      12                2.828427     6.9170031799979e-08    7.09242812089118e-08    1.42257916743202e-07
185                       0                      12                       0    1.05471174944859e-09    9.43077370918781e-10    2.83374096554964e-09
186                       2                      14                5.656854    2.51315722716539e-05    3.63999868128695e-06     8.8851253837186e-06
187                       2                      14                2.828427    5.86607092581688e-07    9.02939214498765e-08    4.00480641619648e-07
188                       2                      14                       0    1.95731029312469e-07    3.17860747488187e-08    1.95792058962754e-07
189                       4                      12                5.656854    3.02417455059776e-05    1.17665526642094e-05    1.39149100176792e-05
190                       4                      12                2.828427    1.59416052686872e-05      6.455846730432e-06    1.39810935948071e-05
191                       4                      12                       0    1.21848175976199e-07    5.10359271338149e-08    1.55008891575049e-07
192                       6                      14                5.656854     0.00390611238279317    0.000834748752678962     0.00256478900465961
193                       6                      14                2.828427    3.47514568250888e-05     8.4033365829711e-06    4.27397756411014e-05
194                       6                      14                       0    5.10739285045464e-06    1.33901207530086e-06    8.91008973665096e-06
195                       8                      12                5.656854     0.00147229154376021     0.00121955696104256     0.00159587655874122
196                       8                      12                2.828427     0.00031332997033615    0.000254648401317328    0.000597989668086373
197                       8                      12                       0      1.213194267257e-06    9.66005590165571e-07    3.11665170445063e-06
198                      10                      14                5.656854     -0.0167992325735712     -0.0134066577267612       -0.16467253077334
199                      10                      14                2.828427    0.000182314647239544    0.000118413275632254    0.000688857979705372
200                      10                      14                       0     1.7224087907981e-05    1.07775042629292e-05    7.87752928588619e-05
201                      12                      12                5.656854     0.00160956782173099     0.00549566928073678     0.00768624963686011