ITEM: TIMESTEP
0
ITEM: NUMBER OF ATOMS
422
ITEM: BOX BOUNDS ff ff ff
0.0000000000000000e+00 2.3200000000000000e+02
0.0000000000000000e+00 2.3200000000000000e+02
0.0000000000000000e+00 2.3200000000000000e+02
ITEM: ATOMS id xu yu zu fx fy fz
1        113.150024536533        115.987613158372        108.660946342695    -0.00409396620065686   -0.000969642413244323     0.00668074121951964
2        118.806815725805        115.968557127368        108.636184885734     0.00182578132901346   -9.75508974894965e-05      0.0105648003589509
3        117.358249064322         115.94369918317        108.612758070405     -0.0015375663454024     0.00537172642265569      0.0182395607676039
4        114.524305943869        115.938185847856         108.61008790492     0.00729433689916297     0.00607693199013975      0.0210360962133746
5        116.703414839858        114.752064522252        108.659193672089     -0.0171769460269108      0.0163169834679292      0.0391223905355416
6        115.264634861867        114.738100479711           108.646661871      0.0271663555238755      0.0176287768444754      0.0451639134759177
7        115.274573752055        117.225254092415        108.659085887027      0.0248717132481287    -0.00906909367798954       0.039656531705617
8        116.663029666634        117.188894071795        108.621293625213     -0.0178300364633456    -0.00951096456302696      0.0405951818296512
9         114.48541189305        113.516101213468        108.624508972293      0.0318892017678377     -0.0426958370690724       0.177378191611251
10        117.433990456645          113.5248383778        108.630290973914     -0.0540169259931713     -0.0403738553119549       0.165522882824349
11        114.548742245202        118.457224346322        108.692732694429      0.0282907069828214      0.0148181937538842        0.13529390577535
12         117.42469429154        118.393334995063        108.625888180885     -0.0556956974918859      0.0175990610600633       0.177202881566507
13        113.120128568369        113.555261896031        108.649671308134     -0.0304619664482168     -0.0305947491276485       0.111333861711712
14        113.166893878626        118.448999832787        108.701299070512     -0.0230596161494664      0.0123106822617759      0.0975690568842823
15        118.870758121193        113.587982188597        108.676643895025      0.0109529088393651     -0.0280233941660156       0.105155234183976
16        118.815744620215        118.379941319299        108.626492848718      0.0196868365577043      0.0154219077027026       0.139762373840073
17         112.39846931284        117.165993418341        108.628527474701    -0.00803943156501672     0.00236453750585582      0.0229786889512865
18        112.477389810974        114.819440567297        108.705014752234    -0.00686688860583801     0.00714535308721722      0.0174451640698715
19        119.565515009027        114.797320924607        108.675747812335      0.0176150806572248     0.00676553738583993      0.0183336830206869
20        119.557773247108         117.21505251504         108.67043927208      0.0181410233524344     0.00178591000751158      0.0191282803918097
21        120.993472758965        114.862772822164        108.695191736341       0.132296504038781       0.123617429421607      0.0265769259054869
22        120.935215102649        117.140711969975        108.639277740399       0.130783861038388     -0.0243185593685258      0.0343317354219801
23        111.062342133889         114.85617529022        108.698570460728     -0.0148376400918444       0.123596972241034      0.0492462059039345
24        110.968840234541        117.098870193669        108.607412221396     -0.0114933942394995     -0.0195887211322868      0.0667462891522192
25        121.547593317892         115.95286393527        108.617720857153     -0.0595219153456833      -0.024039596399085     0.00406202868449997
26        110.388889039233        115.982948443426        108.659052464761    -0.00879660098385694     -0.0275700763302813     -0.0106800556169525
27        121.635495017402        118.212221112504        108.683152971578      -0.170102114917044     -0.0430068168817281        0.17585504138215
28        121.646041794695         113.83056107769        108.689293507995      -0.174414232566546      -0.072692133837716       0.163301391166248
29        110.406330352601         118.22114108917        108.703369601874      0.0294798394701296     -0.0539289217995202       0.131373786873015
30        110.322805905262        113.745409831731        108.615438915001      0.0277838318671903     -0.0835319589636786        0.16138931512265
31        112.588776721457        112.604364699307        108.645763899214     -0.0168445136028906      0.0249941280513324      0.0123581607979493
32        112.603083422173        119.360463242783        108.666833921573     -0.0184466392825304      0.0138458100492045     0.00742452786105539
33        119.374662854926        112.616613056605        108.651203321974      0.0571240433149904      0.0277896818694583     0.00689859151933325
34        119.404683315163         119.38842536841        108.687987108021      0.0572694674195142      0.0149385246669985       0.001296149602711
35        114.929252808664        112.535926799676        108.623820235797     0.00481922414395367      0.0140920278298059   -0.000583045877166671
36        115.003668281755        119.449965319214        108.705097173073     0.00366804142552469      0.0137632430436498    -0.00415628672670329
37        117.002201003488        112.555233989205        108.641063079466       0.022312862918805       0.014870350512046   -0.000989622137487647
38        117.002505007411        119.395161040465         108.64822854988      0.0218126883581195      0.0120236675167642    -0.00546516271778571
39                     100                     100              105.656854       0.212189813927238       0.214028746559974      -0.975675969636974
40                     100                     100              102.828427        0.43199714931146       0.430387929507903   -0.000391390496235639
41                     100                     100                     100       0.212152198636996       0.213467170462579       0.976335668687756
42                     102                     102              105.656854      -0.344534235838043      -0.347686660684588      -0.277989894450874
43                     102                     102              102.828427     -0.0508721009676985     -0.0482361178785531    0.000721628032270462
44                     102                     102                     100      -0.344493920279428      -0.346520911581289       0.276816813549569
45                     104                     100              105.656854      0.0957597888182083       0.960179400416063       -0.80893002446716
46                     104                     100              102.828427     -0.0637372012038363       0.726614965995817   -0.000301147499215567
47                     104                     100                     100      0.0961251866383935       0.959497553832967       0.809401060661019
48                     106                     102              105.656854      -0.149037181036325      -0.515110949218299      -0.381480451214489
49                     106                     102              102.828427       0.142142454923714      0.0666746398216583    0.000431489448747166
50                     106                     102                     100      -0.150056556667955      -0.513830231046366       0.380852877781739
51                     108                     100              105.656854       0.109433752143271        1.06015395143646      -0.801903839255826
52                     108                     100              102.828427      -0.111438753352433       0.639826367554627    0.000231247122486876
53                     108                     100                     100       0.110513119562856        1.06005551585152       0.801458747646548
54                     110                     102              105.656854      -0.142887251497364      -0.581908983187177      -0.373832182140498
55                     110                     102              102.828427        0.14771186842675       0.134817827579618   -0.000931833163234699
56                     110                     102                     100      -0.145368450119298      -0.582595838385356       0.375454929621995
57                     112                     100              105.656854       0.131531472805438        1.10834028359983      -0.810690480580392
58                     112                     100              102.828427      -0.135338711533213       0.589521671588827     0.00117048884412654
59                     112                     100                     100       0.132742653410063        1.10979847921163       0.808695469061061
60                     114                     102              105.656854      -0.163614479066289      -0.618533989528669      -0.361322953791812
61                     114                     102              102.828427       0.168586294449371       0.174629123156984    -0.00267772020560973
62                     114                     102                     100      -0.165165340766065      -0.622551194168203       0.365755525859124
63                     116                     100              105.656854       0.166542580798722        1.14371435158288       -0.82125570840363
64                     116                     100              102.828427      -0.170731564696883       0.552432476848401      0.0016980069301427
65                     116                     100                     100       0.166558265583441        1.14615541869498       0.818404931619245
66                     118                     102              105.656854      -0.209539760120952      -0.650653714032374      -0.347885826939141
67                     118                     102              102.828427        0.21438423885328       0.207816120166096    -0.00270259890271789
68                     118                     102                     100      -0.208049250552408      -0.654711667846713         0.3523481430914
69                     120                     100              105.656854        0.22328347315273        1.18233913486473      -0.835261149708169
70                     120                     100              102.828427      -0.228693623628623       0.513081475648029     0.00119409312098381
71                     120                     100                     100       0.222097036464227        1.18383749343457       0.833235169141051
72                     122                     102              105.656854      -0.288916352489151      -0.687884918311683      -0.330287720992771
73                     122                     102              102.828427        0.29368133574119       0.244242794336069   -0.000996515524658635
74                     122                     102                     100      -0.286463222532337       -0.68868880942575       0.331992336594528
75                     124                     100              105.656854       0.326446483274274        1.23668597275588      -0.852105702272692
76                     124                     100              102.828427      -0.323076174917802       0.459530057106837    0.000265198142949195
77                     124                     100                     100       0.325366911856867         1.2366453068122        0.85161464284199
78                     126                     102              105.656854      -0.461788017615053      -0.727753050520897      -0.332038229772309
79                     126                     102              102.828427       0.397319374702408       0.281736428264811    0.000370687381413064
80                     126                     102                     100      -0.460737960894316      -0.726573526194761       0.331490922603188
81                     128                     100              105.656854       0.708315415846514        1.34075632970003      -0.754729907103512
82                     128                     100              102.828427      -0.280970760063513       0.396053084841013   -0.000275951379957273
83                     128                     100                     100       0.707932509921168        1.34011218052037       0.755165985251677
84                     130                     102              105.656854         -1.340630678901      -0.708803084565777       -0.75543177529454
85                     130                     102              102.828427      -0.395824210384194       0.281062904519344    0.000690826762702127
86                     130                     102                     100       -1.34063557599381       -0.70767709816995       0.754300197603842
87                     100                     104              105.656854       0.959182789101828       0.100113427315624      -0.808406077620115
88                     100                     104              102.828427       0.727608620991746     -0.0672795133549708    -0.00108455227583508
89                     100                     104                     100       0.958571758841599      0.0987496450461736       0.810193575838785
90                     102                     106              105.656854      -0.513997731498233      -0.157266020610984       -0.38285104832165
91                     102                     106              102.828427      0.0653468426757522       0.148279403170661     0.00226312976698711
92                     102                     106                     100      -0.512510223131189      -0.154154073747518       0.379236618634105
93                     104                     104              105.656854       0.247256010591618        0.25314644969429      -0.388457874302687
94                     104                     104              102.828427      -0.179991600733309      -0.184564652267357    -0.00141260737293126
95                     104                     104                     100       0.247312697944286       0.250524537238792       0.390675396037695
96                     106                     106              105.656854       -0.23321382445985      -0.245599413662772      -0.504867248999924
97                     106                     106              102.828427       0.225230235822101       0.233656829017476     0.00288466513944284
98                     106                     106                     100       -0.23404318745609      -0.239196734768347       0.500334305277756
99                     108                     104              105.656854       0.172781900858196       0.338954199421592      -0.375169759581188
100                     108                     104              102.828427      -0.176892219539481      -0.268918134189767   -0.000392737237794327
101                     108                     104                     100       0.175890675750076       0.336757496981251       0.375656672953028
102                     110                     106              105.656854      -0.180508330413377      -0.293514234961125      -0.490133863449471
103                     110                     106              102.828427       0.191316835047552       0.285704215704258   -0.000943675802841288
104                     110                     106                     100      -0.190432745790187      -0.291740604153293        0.49186412631076
105                     112                     104              105.656854       0.166189659326841       0.379093423433382      -0.390988230986042
106                     112                     104              102.828427      -0.173596769491276      -0.314276963065419     0.00310999719599605
107                     112                     104                     100       0.171418770534802       0.383282482151532       0.385796589424583
108                     114                     106              105.656854        -0.1870416714313      -0.306406882659379      -0.466489960654262
109                     114                     106              102.828427       0.196806217760691       0.311150222829269    -0.00884417653604071
110                     114                     106                     100      -0.194756568261352      -0.322000476670076       0.481735201886651
111                     116                     104              105.656854       0.198070299255246       0.404440814821926      -0.406586451197675
112                     116                     104              102.828427      -0.203301069376081      -0.343646484974143       0.005485151081703
113                     116                     104                     100       0.198127326962197       0.413637431351697       0.397583563356786
114                     118                     106              105.656854      -0.241745834708746      -0.328443452992662      -0.450574297601103
115                     118                     106              102.828427       0.243718837246153       0.333936683955531    -0.00894046220826423
116                     118                     106                     100      -0.234292227604273      -0.344154529756763       0.465900238249489
117                     120                     104              105.656854       0.261023498490419       0.435488606445133      -0.421742467217902
118                     120                     104              102.828427      -0.265251466144069      -0.372609404393413     0.00321124683181769
119                     120                     104                     100       0.255915764889877       0.439859160144103       0.416434594993983
120                     122                     106              105.656854      -0.319570330179581      -0.362731893124478      -0.438173467172255
121                     122                     106              102.828427       0.320532099831439       0.357604290576271    -0.00125447339297412
122                     122                     106                     100      -0.309794831022077      -0.361606187016999       0.440288335702137
123                     124                     104              105.656854        0.36850846888537        0.46389524759302      -0.438547485555117
124                     124                     104              102.828427      -0.362808074464701      -0.397905631215533   -0.000247839339445181
125                     124                     104                     100       0.365372979450251       0.461970837362643       0.438852168094597
126                     126                     106              105.656854      -0.466345076705894      -0.369447904490481      -0.441665736239218
127                     126                     106              102.828427       0.401296731253389       0.361669665362489     0.00264539959587579
128                     126                     106                     100      -0.465283768515916      -0.363453211505564       0.437438431532579
129                     128                     104              105.656854       0.728071287904878       0.462488155815843      -0.330622177984101
130                     128                     104              102.828427      -0.282719862226597      -0.397148695345739    -0.00132859750372056
131                     128                     104                     100       0.727924298889459       0.459988431205878       0.332731179716986
132                     130                     106              105.656854        -1.2366077256687      -0.328464357350926      -0.853674895953155
133                     130                     106              102.828427      -0.458739179687596       0.323987769037136     0.00218274961731806
134                     130                     106                     100        -1.2379606285947      -0.325431374516121       0.850160647427447
135                     100                     108              105.656854        1.06320859321451       0.116696537075574      -0.799901255471381
136                     100                     108              102.828427       0.638090495248482      -0.116937371848822    -0.00254804501425418
137                     100                     108                     100        1.06069151728589       0.114233964592183       0.804023387543438
138                     102                     110              105.656854      -0.590402158100318      -0.155655240825229      -0.379262363758892
139                     102                     110              102.828427       0.138926319924299       0.156295936635197     0.00552896994735121
140                     102                     110                     100      -0.583846097246779      -0.150474745331033       0.370422507438298
141                     104                     108              105.656854       0.338768809038037       0.189964303733643      -0.370843291938332
142                     104                     108              102.828427      -0.267256750584074      -0.187894866075639    -0.00511641801611014
143                     104                     108                     100       0.334790016444097        0.18218687111056       0.379037707770731
144                     106                     110              105.656854      -0.299603002647778      -0.219904012227597      -0.507557301615872
145                     106                     110              102.828427       0.283515411097121       0.210462125125461      0.0120412193445355
146                     106                     110                     100      -0.288498411527917      -0.199294718693239       0.485045089733232
147                     108                     108              105.656854       0.221742641081167       0.252329817853725       -0.35797119087778
148                     108                     108              102.828427      -0.228603567848045       -0.24470209077823     -0.0055404585102678
149                     108                     108                     100       0.227806013102375       0.235830398802932       0.368367057909034
150                     110                     110              105.656854      -0.177689478623897      -0.260670059908234      -0.493387181195911
151                     110                     110              102.828427       0.215027501758012       0.243343176239681     0.00595425238702525
152                     110                     110                     100      -0.221342421072072      -0.232361700908197       0.474985725039912
153                     112                     108              105.656854       0.173749631896854       0.256696649101006      -0.393499846925819
154                     112                     108              102.828427      -0.197182950542265      -0.269250858201652     0.00812495878111948
155                     112                     108                     100       0.200825067752202       0.267155330370991       0.378003932402086
156                     114                     110              105.656854      -0.175968282678689      -0.183163434657964      -0.383202717972273
157                     114                     110              102.828427       0.208079710095479       0.245985728033914     -0.0272648492683259
158                     114                     110                     100       -0.21302580675043      -0.249048192663915       0.470123783137558
159                     116                     108              105.656854        0.21997615655961       0.249068052456879      -0.426252962382207
160                     116                     108              102.828427      -0.225900469453345      -0.281359351065277      0.0195897837224907
161                     116                     108                     100       0.220087241896303       0.285819770936879       0.388630968707587
162                     118                     110              105.656854      -0.285589184617324      -0.194930987757235      -0.366641817239959
163                     118                     110              102.828427       0.266740725218986       0.257401571383159     -0.0274648679891437
164                     118                     110                     100      -0.249482246506994       -0.26007938869981        0.45288653595258
165                     120                     108              105.656854        0.30023133357564       0.289360591574723      -0.428617852483827
166                     120                     108              102.828427      -0.290586662762911      -0.303609814475165     0.00857254065640388
167                     120                     108                     100       0.274077665077368       0.300703026636728       0.412576388019575
168                     122                     110              105.656854       -0.35797012887801      -0.290228727148827      -0.433664111661354
169                     122                     110              102.828427        0.33436423143262       0.277573576875562     0.00453236357978584
170                     122                     110                     100      -0.315359653184131      -0.265946477388073       0.418976875611433
171                     124                     108              105.656854       0.375711283155582       0.320444363155057      -0.431001162398124
172                     124                     108              102.828427      -0.368560758527078      -0.316168832782845     -0.0048700513421492
173                     124                     108                     100       0.369175317407767           0.30540927305       0.440377199858119
174                     126                     110              105.656854      -0.437583756358456      -0.275057337408605      -0.435323645824719
175                     126                     110              102.828427       0.380695003436971        0.26816575959247      0.0113001898060263
176                     126                     110                     100      -0.447089567646655      -0.255322019493354       0.414026521587165
177                     128                     108              105.656854       0.688308660297947       0.293859946669507      -0.326249158097154
178                     128                     108              102.828427      -0.246825619940821      -0.295352413271554    -0.00487290190252731
179                     128                     108                     100       0.691847453953896       0.286344424881994       0.334135571174367
180                     130                     110              105.656854       -1.17947444406333      -0.228165416480333      -0.839221409230307
181                     130                     110              102.828427      -0.512800507242451        0.23118515745679     0.00540245310326873
182                     130                     110                     100       -1.18570389370391      -0.222958478081273       0.830522574053043
183                     100                     112              105.656854        1.11861012660296       0.137969663414468      -0.806359044167333
184                     100                     112              102.828427       0.583263894151015      -0.139982752302081    -0.00449332253022525
185                     100                     112                     100        1.11281377349869       0.135706584864746       0.813577618216754
186                     102                     114              105.656854      -0.639289708606364      -0.169957505111608      -0.371555964144534
187                     102                     114              102.828427       0.185186422689939       0.172724137874063     0.00875049572228907
188                     102                     114                     100      -0.626633231956648      -0.167535128016275       0.357401420795097
189                     104                     112              105.656854       0.402676927868471       0.187043616074377      -0.374194303175273
190                     104                     112              102.828427      -0.322622223579427      -0.185327066957398     -0.0122165985891349
191                     104                     112                     100       0.384981623754555       0.177381264278506        0.39524221618531
192                     106                     114              105.656854       -0.35781836893159      -0.205576787196578      -0.518286986306937
193                     106                     114              102.828427       0.322128214381689       0.206727094431051      0.0236639414428707
194                     106                     114                     100      -0.322487419516884      -0.199296506230009       0.466490839488427
195                     108                     112              105.656854       0.287359626534233       0.258775416059262      -0.301373680991179
196                     108                     112              102.828427      -0.262450691705775      -0.222797405051509     -0.0232541622198988
197                     108                     112                     100       0.261213379708662        0.21067528566907       0.389594338933024
198                     110                     114              105.656854      -0.146815139659572      -0.176747796393137      -0.752730263497345
199                     110                     114              102.828427       0.223006862163028       0.223808694145952      0.0166225312469726
200                     110                     114                     100      -0.239262863182602      -0.219576052792452       0.456608848842191
201                     112                     112              105.656854      0.0887975159721918       0.229992331554746      -0.427723069029939