ITEM: TIMESTEP
0
ITEM: NUMBER OF ATOMS
422
ITEM: BOX BOUNDS pp pp pp
0.0000000000000000e+00 3.2000000000000000e+01
0.0000000000000000e+00 3.2000000000000000e+01
0.0000000000000000e+00 3.2000000000000000e+01
ITEM: ATOMS id xu yu zu fx fy fz
1        11.3459321938386        15.9835208156773                 8.65685      0.0040746701026032    0.000268285762492262   -0.000377999058230978
2        17.0274848400711        15.9892262416344                 8.65685    -0.00575856137994172    0.000311538776771407     0.00558256123127028
3         15.602344993917         15.987795112765                 8.65685     0.00247279890669979    0.000122123556248415     -0.0029609074987971
4         12.771072038949        15.9849519429358                 8.65685    -0.00473314591861955    0.000299603403297713     0.00123676039925755
5        14.9010751677692        14.7497248501637                 8.65685      0.0293262844108037       0.024438887349029      0.0772285493616533
6        13.4748269908674        14.7482926087119                 8.65685     -0.0240155487935896      0.0342256583196341       0.114218146877718
7        13.4723418650276        17.2230222053877                 8.65685     -0.0234357607482633     -0.0345108733684833       0.110490862029791
8        14.8985900414216        17.2244544465825                 8.65685      0.0286104719648639     -0.0247273553648357      0.0752512096063624
9        12.7177569207574        13.5484462411751                 8.65685     -0.0300213072105945     -0.0110355362693005      0.0544245633176007
10        15.6605534827313        13.5514014038861                 8.65685      0.0155019314003515    -0.00605742979985113      0.0242862489688287
11        12.7128635507729         18.421345651893                 8.65685     -0.0303666703365949      0.0103934446059969      0.0550364902642332
12        15.6556601106552        18.4243008141789                 8.65685      0.0159259692905058     0.00585351067274839      0.0250399358685517
13        11.3273112602357        13.5624445878976                 8.65685      0.0288022328257417     -0.0100498681870932      0.0503319711308499
14        11.3224488081137        18.4045547622743                 8.65685      0.0294717861368229     0.00953113141557827      0.0519451947917683
15         17.050968226168        13.5681922935721                 8.65685     -0.0369498451172376     -0.0168613658372688        0.09534508158333
16        17.0461057714963        18.4103024705805                 8.65685     -0.0373401166793878      0.0161107950431493      0.0959630147622086
17         10.626795838139        17.1943199436399                 8.65685      0.0251814870235197     -0.0323555298303977       0.098474768446631
18        10.6292290587396        14.7712798150634                 8.65685      0.0261064981010218      0.0319950874123459        0.10218330352178
19        17.7466211966922        14.7784271122721                 8.65685     -0.0128475613893622      0.0395024513607674       0.128508022024151
20        17.7441879750283        17.2014672429596                 8.65685     -0.0127051433522112     -0.0396845135026391       0.125542003369767
21        19.1551350226241        14.8244350858224                 8.65685      0.0247969673886851      0.0179684119755022      0.0474495470966952
22        19.1527913622507        17.1582882295758                 8.65685      0.0243880732014391     -0.0180690922554489      0.0465732991429998
23        9.22062567316109        14.8144588294926                 8.65685     -0.0271064833423159      0.0283198121173556      0.0833385857034421
24        9.21828201314539        17.1483119722736                 8.65685     -0.0260863263367134     -0.0284036306748543      0.0794004380525758
25        19.7867264607395        15.9919970781177                 8.65685    0.000388879174844435    1.81232778633283e-05    -0.00988740368552333
26         8.5866905744716        15.9807499786644                 8.65685     -0.0011546403102447    0.000101072525022175    -0.00882531999686262
27         19.809196045824        18.1859221409264                 8.65685     0.00396958110573646    0.000856282539512585    0.000224088377996851
28        19.8136022867001        13.7981215696947                 8.65685     0.00386330467306333   -0.000920981565729621    0.000109116854529394
29        8.55981475072747        18.1746254872963                 8.65685     -0.0111451637873873     0.00144485404962305      0.0103946202884316
30        8.56422099026049        13.7868249167297                 8.65685     -0.0111138601368318    -0.00175953647161469      0.0103421199488557
31        10.7998668222426        12.6154548000933                 8.65685     0.00098864470435472     -0.0019629857640783    -0.00665483159639153
32        10.7931035005993        19.3504833212092                 8.65685     0.00107679539196973     0.00207738402726169    -0.00632616423065674
33        17.5803135329519        12.6222637346313                 8.65685   -0.000762155418902405     -0.0028399334840792    -0.00488456087668185
34        17.5735502071424         19.357292260389                 8.65685   -0.000808441870319875     0.00290890546292325    -0.00466584355804541
35        13.1622865728669        12.5689605638796                 8.65685   -0.000870354676173079    -0.00173706162609247    -0.00720109244525905
36         13.155425108682        19.4017221461408                 8.65685   -0.000940594959371977     0.00180232678815128    -0.00700898841608138
37        15.2179919240215        12.5710249097393                 8.65685    0.000654967614839553   -0.000863638397109959    -0.00876082107163962
38         15.211130457531        19.4037864905846                 8.65685    0.000715049171861443    0.000916444572604114    -0.00862781527722838
39                       0                       0                5.656854                       0                       0                       0
40                       0                       0                2.828427                       0                       0                       0
41                       0                       0                       0                       0                       0                       0
42                       2                       2                5.656854    2.78074569311902e-09    4.47759936809289e-09     1.1692839142596e-09
43                       2                       2                2.828427    1.25157131045894e-10    2.01085371398703e-10    1.02075440925053e-10
44                       2                       2                       0                       0                       0                       0
45                       4                       0                5.656854    1.95000508702391e-10    1.08744688005198e-11    1.06277070381552e-10
46                       4                       0                2.828427                       0                       0                       0
47                       4                       0                       0                       0                       0                       0
48                       6                       2                5.656854    4.07967935747337e-08    1.06811214768001e-07    2.79100241581877e-08
49                       6                       2                2.828427    1.59351939229307e-09    4.16565135745218e-09    2.11188664465866e-09
50                       6                       2                       0    4.02006566968486e-10    1.24353923031778e-09    9.58736022551541e-10
51                       8                       0                5.656854    1.21913914739118e-09    1.11823666185612e-10    1.13967652300512e-09
52                       8                       0                2.828427    8.67751844761078e-10     7.1191316322211e-10    1.69385851564933e-09
53                       8                       0                       0                       0                       0                       0
54                      10                       2                5.656854    8.34537811800058e-08    5.16915291715196e-07    1.37961857731498e-07
55                      10                       2                2.828427    3.05619492677099e-09    1.84147355716264e-08    9.51548373399721e-09
56                      10                       2                       0    1.20893930043029e-09    7.94811209547024e-09    6.18773891161787e-09
57                      12                       0                5.656854    9.47381441090779e-10    2.74720416838449e-10    2.99711132253385e-09
58                      12                       0                2.828427    8.29231759837303e-10    3.05858532379498e-10     6.8417494123745e-09
59                      12                       0                       0                       0                       0                       0
60                      14                       2                5.656854    4.21867764903458e-09    8.06584752398264e-07    2.16969395107872e-07
61                      14                       2                2.828427    8.68436770637494e-11    2.80448409374733e-08    1.46057047504797e-08
62                      14                       2                       0    1.01183916348584e-10    1.28015975154022e-08    1.00083810447265e-08
63                      16                       0                5.656854   -7.93110412716279e-10    2.46747337457896e-10    3.10725548223121e-09
64                      16                       0                2.828427   -5.54947625240574e-10    2.58168217625386e-10    7.00528704471546e-09
65                      16                       0                       0                       0                       0                       0
66                      18                       2                5.656854   -7.99787342849115e-08    5.58303601446359e-07    1.49174323706441e-07
67                      18                       2                2.828427   -2.92723588737044e-09    1.98120939267912e-08     1.0248319649687e-08
68                      18                       2                       0   -1.07904512244534e-09    8.42313693313105e-09    6.56304918680059e-09
69                      20                       0                5.656854   -1.26827277243585e-09    9.10451390212148e-11    1.29660102444261e-09
70                      20                       0                2.828427   -8.87225831751048e-10    6.82691191078158e-11     2.1648270047096e-09
71                      20                       0                       0                       0                       0                       0
72                      22                       2                5.656854   -4.68652693489098e-08    1.29898581089668e-07     3.3988987185326e-08
73                      22                       2                2.828427   -1.81632550244641e-09    5.00367171114252e-09    2.54328022292616e-09
74                      22                       2                       0   -4.17387002724171e-10    1.41430759950084e-09    1.09240571189837e-09
75                      24                       0                5.656854    -2.2716126817584e-10    7.89817694664491e-12    1.31513230518285e-10
76                      24                       0                2.828427                       0                       0                       0
77                      24                       0                       0                       0                       0                       0
78                      26                       2                5.656854   -5.00144362420292e-09    8.25939050228154e-09    2.12166999364134e-09
79                      26                       2                2.828427   -1.56104539378427e-10    2.62970645198755e-10    1.33623585284022e-10
80                      26                       2                       0                       0                       0                       0
81                      28                       0                5.656854                       0                       0                       0
82                      28                       0                2.828427                       0                       0                       0
83                      28                       0                       0                       0                       0                       0
84                      30                       2                5.656854                       0                       0                       0
85                      30                       2                2.828427                       0                       0                       0
86                      30                       2                       0                       0                       0                       0
87                       0                       4                5.656854    1.37650717879514e-09    1.51838417171358e-09    4.62288077210898e-10
88                       0                       4                2.828427    1.53320921166065e-09    1.65941146697224e-09    1.00559208354815e-09
89                       0                       4                       0                       0                       0                       0
90                       2                       6                5.656854    5.74633013324649e-07    6.37270676194441e-07    2.38828706492769e-07
91                       2                       6                2.828427    1.88425365490958e-08    2.07336122023609e-08    1.50560169528199e-08
92                       2                       6                       0    8.03668955250295e-09    8.91109988546578e-09    9.66012898146108e-09
93                       4                       4                5.656854    4.03297849454803e-08    6.88545321585197e-08    2.11682885496552e-08
94                       4                       4                2.828427    4.51972791933019e-08    7.66261175417464e-08    4.57633258347824e-08
95                       4                       4                       0     6.0356218431792e-10    1.04781271246843e-09    9.35639926535885e-10
96                       6                       6                5.656854    9.60798807381764e-06    1.88119151671098e-05    7.32526547207603e-06
97                       6                       6                2.828427    2.31578340274226e-07    4.45043240562139e-07     3.3334326024438e-07
98                       6                       6                       0    7.97852487892008e-08    1.51249400468943e-07    1.66391023971368e-07
99                       8                       4                5.656854    2.28757158776632e-07     7.5171740582242e-07    2.39395343653998e-07
100                       8                       4                2.828427    2.16249020068586e-07     7.0257543209284e-07    4.31093284545374e-07
101                       8                       4                       0    2.75478020091732e-09    8.94370152830764e-09    8.12755065581688e-09
102                      10                       6                5.656854    2.49023674362998e-05    0.000124551246762059    5.11098004030743e-05
103                      10                       6                2.828427     4.8527118670156e-07    2.33788329820035e-06    1.82917053151752e-06
104                      10                       6                       0    1.39869584227454e-07    6.44468928576031e-07    7.34047555510118e-07
105                      12                       4                5.656854    1.57868373741375e-07    2.11013166543155e-06    6.87328806843872e-07
106                      12                       4                2.828427    1.45328419516885e-07    1.81176561264421e-06    1.13503433099958e-06
107                      12                       4                       0    1.79183435926268e-09    2.15118278036482e-08    1.98582743572333e-08
108                      14                       6                5.656854    8.26440098905481e-07    0.000196527145017553    8.19938172408024e-05
109                      14                       6                2.828427    1.92260768866808e-08    3.56417697428913e-06    2.83374203093781e-06
110                      14                       6                       0    6.03491539130485e-09    9.49646393125565e-07     1.0977476156486e-06
111                      16                       4                5.656854   -1.31793375316205e-07    2.17768373674212e-06     7.0985633296173e-07
112                      16                       4                2.828427   -1.22011965647553e-07    1.86824450390041e-06    1.17130885566333e-06
113                      16                       4                       0   -1.46763962698526e-09    2.21143422266259e-08    2.04337820524816e-08
114                      18                       6                5.656854   -2.37262906114749e-05    0.000136324384017623    5.60797131818184e-05
115                      18                       6                2.828427   -4.62165745822154e-07    2.53260875230735e-06    1.98626027895051e-06
116                      18                       6                       0   -1.33200256802936e-07    6.91753847066056e-07    7.89591481082401e-07
117                      20                       4                5.656854   -2.43997383516036e-07    8.70655816668954e-07    2.78039901968128e-07
118                      20                       4                2.828427   -2.27664122494721e-07    8.02610636475144e-07    4.93695167832876e-07
119                      20                       4                       0   -2.83650808155396e-09    1.00422502789242e-08    9.14627325134212e-09
120                      22                       6                5.656854   -1.13963970619839e-05     2.3759509770267e-05    9.29318432038987e-06
121                      22                       6                2.828427   -2.67767674815879e-07    5.47975316518943e-07    4.11901738327716e-07
122                      22                       6                       0   -9.11757087051382e-08    1.82630248481181e-07    2.01443934409869e-07
123                      24                       4                5.656854   -5.04263875285531e-08    9.05459094366982e-08    2.78760388809337e-08
124                      24                       4                2.828427    -5.5309851785833e-08     9.8449340155652e-08    5.89361413263235e-08
125                      24                       4                       0   -7.06697680033711e-10    1.30048065861842e-09    1.16279331829233e-09
126                      26                       6                5.656854   -7.91643493237603e-07    9.19279752036432e-07    3.45103883730406e-07
127                      26                       6                2.828427   -2.52072189320632e-08    2.90804497802465e-08    2.11174732798776e-08
128                      26                       6                       0   -1.11041597889504e-08    1.28277401770418e-08    1.38343864855469e-08
129                      28                       4                5.656854   -2.19371368186242e-09    2.49433454312756e-09     7.5437676150382e-10
130                      28                       4                2.828427   -2.09096971210284e-09    2.35705995495861e-09    1.42855563821834e-09
131                      28                       4                       0                       0                       0                       0
132                      30                       6                5.656854   -4.21290990236211e-09    1.57528803742558e-08    5.83649518679494e-09
133                      30                       6                2.828427   -1.09509630001619e-10    4.32500551229259e-10    3.23442294097099e-10
134                      30                       6                       0                       0                       0                       0
135                       0                       8                5.656854    9.51570603275766e-08    6.70865048782424e-08    3.23398746796355e-08
136                       0                       8                2.828427    1.00411443092077e-07    7.09821246809001e-08    6.60319524060589e-08
137                       0                       8                       0     1.3166111363157e-09    9.23585655044258e-10    1.28698788981553e-09
138                       2                      10                5.656854    2.83952626745756e-05    1.74769214579057e-05    1.22409980314534e-05
139                       2                      10                2.828427    6.06020652959146e-07      3.762533487161e-07    4.99143393746561e-07
140                       2                      10                       0    1.87600724129633e-07    1.17456266888906e-07    2.25577059143119e-07
141                       4                       8                5.656854    5.29849265052715e-06    6.08833082851248e-06    3.04094697990689e-06
142                       4                       8                2.828427     3.5333220159578e-06     3.9956558989562e-06    3.82559471734035e-06
143                       4                       8                       0    3.34090693578139e-08    3.71989251999035e-08    5.20628552114237e-08
144                       6                      10                5.656854     0.00112489315785289     0.00137955665863126     0.00102737230598711
145                       6                      10                2.828427     1.2015814552328e-05    1.41424584832629e-05    1.97890611809031e-05
146                       6                      10                       0    2.09550916775074e-06    2.37931197102695e-06    4.76040682823284e-06
147                       8                       8                5.656854      4.971871016872e-05    0.000119655700258245    6.41840410352064e-05
148                       8                       8                2.828427    2.17185071803604e-05     5.0734782206051e-05    5.14240124246069e-05
149                       8                       8                       0    1.43465194854905e-07    3.22627662064637e-07    4.71846930103339e-07
150                      10                      10                5.656854       0.003236756306703      0.0109949887459394     0.00923666342274633
151                      10                      10                2.828427    2.51549360055403e-05    8.23020065586577e-05    0.000126792947889833
152                      10                      10                       0    3.35082564998367e-06    1.02164604002283e-05     2.1887468984881e-05
153                      12                       8                5.656854    2.94111165172984e-05    0.000395980279440585    0.000225912724426744
154                      12                       8                2.828427    1.24608515192113e-05    0.000137165744550764    0.000146340214033307
155                      12                       8                       0    8.14662091984666e-08    7.53758887103974e-07    1.14814821154358e-06
156                      14                      10                5.656854    3.11330278214421e-05      0.0156981423480608      0.0138336287654875
157                      14                      10                2.828427    4.30487515950085e-07    0.000115391941034443    0.000185362681719909
158                      14                      10                       0    1.14891923412564e-07    1.40659525165082e-05     3.1161129625741e-05
159                      16                       8                5.656854   -2.22954104960016e-05    0.000405575180363629    0.000231766628785699
160                      16                       8                2.828427   -9.93228466439201e-06    0.000140684716060934    0.000150336279432382
161                      16                       8                       0   -6.71271456229625e-08     7.7342412589515e-07    1.17989730846061e-06
162                      18                      10                5.656854    -0.00302800435765147       0.011909815747411      0.0100843569434525
163                      18                      10                2.828427   -2.34422546859217e-05     8.8837177718179e-05    0.000137877842489847
164                      18                      10                       0   -3.12400109565604e-06    1.09002203053729e-05    2.34721811879589e-05
165                      20                       8                5.656854   -5.47958301959925e-05    0.000143259120197641    7.74968170333371e-05
166                      20                       8                2.828427   -2.31406434539952e-05    5.89136066306832e-05    6.00653537615372e-05
167                      20                       8                       0   -1.49314067912831e-07    3.65954254442058e-07    5.37469676091657e-07
168                      22                      10                5.656854    -0.00138380537394491     0.00184716703468541     0.00138369744613211
169                      22                      10                2.828427   -1.41526220315148e-05    1.80000507181016e-05    2.53168503786386e-05
170                      22                      10                       0   -2.37812404088215e-06    2.89991210664236e-06    5.82615023270885e-06
171                      24                       8                5.656854   -7.06251991429611e-06    8.62635245108443e-06    4.32144900417755e-06
172                      24                       8                2.828427   -4.50919690216932e-06    5.40190557591451e-06    5.18601944736401e-06
173                      24                       8                       0   -4.08548613236215e-08    4.80770720853097e-08    6.74543249465415e-08
174                      26                      10                5.656854    -4.3118515687948e-05    2.79067951839003e-05    1.96195394853516e-05
175                      26                      10                2.828427   -8.62033462782042e-07    5.61806063267145e-07    7.47513197006965e-07
176                      26                      10                       0    -2.5289699697109e-07    1.65626617186593e-07    3.18498928368246e-07
177                      28                       8                5.656854   -1.45817696791159e-07    1.05576479491278e-07     5.0998636980992e-08
178                      28                       8                2.828427   -1.51673658417049e-07    1.09494133527646e-07    1.01691068284448e-07
179                      28                       8                       0    -1.8193197520471e-09    1.33118460102842e-09    1.85551577725197e-09
180                      30                      10                5.656854   -1.20760177090261e-07    2.13361148442107e-07    1.41697725547597e-07
181                      30                      10                2.828427   -3.97562673269389e-09    7.72448612278133e-09    9.87430852267518e-09
182                      30                      10                       0   -1.55727585722328e-09    3.38954222181463e-09     6.6015310535842e-09
183                       0                      12                5.656854    1.35065862398344e-06    4.17361577949678e-07    4.60041768751171e-07
184                       0                      12                2.828427    1.14289093475693e-06    3.64949239474881e-07    7.53572659443646e-07
185                       0                      12                       0    1.35821457247388e-08    4.40466740719348e-09    1.30086260863494e-08
186                       2                      14                5.656854    0.000215608009802645    3.51184709593929e-05    9.34658781150819e-05
187                       2                      14                2.828427    3.58591604764407e-06    6.36998662128151e-07    2.97603071813393e-06
188                       2                      14                       0    8.75474758564845e-07    1.66530739340576e-07    1.05851049104748e-06
189                       4                      12                5.656854    0.000195528592666589    9.53088872426602e-05    0.000118571770195617
190                       4                      12                2.828427    6.88784399913569e-05    3.49418675902273e-05    7.81960349353145e-05
191                       4                      12                       0    3.85794553541466e-07    2.00801265639368e-07    6.23731425212288e-07
192                       6                      14                5.656854       0.012137265172456      0.0043994364463591      0.0112823591650682
193                       6                      14                2.828427    9.98806927585242e-05    3.27816523360152e-05    0.000175794403090663
194                       6                      14                       0    1.10735956148014e-05    3.86615179010926e-06    2.65720366105671e-05
195                       8                      12                5.656854     0.00252054480804607     0.00307184298124294     0.00411799385522577
196                       8                      12                2.828427    0.000487787017820493    0.000598894005621965     0.00146699787107004
197                       8                      12                       0    1.68029309457307e-06    1.93203120343062e-06    6.44537810745283e-06
198                      10                      14                5.656854    -0.00585689004143454     -0.0324351774134577      -0.276047229115769
199                      10                      14                2.828427     0.00013947582982877    0.000167061239122084     0.00106511720225306
200                      10                      14                       0     1.4063508028555e-05    1.50837112095478e-05    0.000116333455092677
201                      12                      12                5.656854    0.000728450299879726     0.00510199162727787     0.00741389180001698