ITEM: TIMESTEP
0
ITEM: NUMBER OF ATOMS
422
ITEM: BOX BOUNDS pp pp pp
0.0000000000000000e+00 3.2000000000000000e+01
0.0000000000000000e+00 3.2000000000000000e+01
0.0000000000000000e+00 3.2000000000000000e+01
ITEM: ATOMS id xu yu zu fx fy fz
1        13.1437342499553         15.981322871794        8.65465205611675       -1.16978690289236       -0.72920106937805      -0.200527499939475
2        18.7807376079457         15.942479009509        8.61010276787463        2.94241695226658        3.02333318338313       0.442179071383795
3        17.3885396842517        15.9739898030997        8.64304469033474       -3.45300630721783       -2.57118858080847      -0.777791436431183
4        14.5330219882232          15.94690189221        8.61879994927416        4.36462840111679        4.73339054154591        1.08005639523034
5        16.6585562731671        14.7072059555616        8.61433110539791        2.42439765082789        3.22999804081568       0.722734913160903
6        15.2321835433157        14.7056491611602         8.6142065524483       0.277591837712732      -0.308472362248079      -0.188099561865532
7        15.3194454772544        17.2701258176145         8.7039536122268       -6.23114659036232       -6.53872387650067       -1.36109685715339
8        16.6708679114306        17.1967323165916        8.62912787000906        4.26701602595992        3.77706604729187       0.776144296019201
9        14.4790080833417        13.5096974037595        8.61810116258437        1.11182196941143       0.436931086569133      0.0127491678607772
10        17.4889204441959        13.5797683653506        8.68521696146458       -2.56850292479014       -3.06818377571422      -0.422000486159685
11        14.5282220927668        18.4367041938869        8.67220854199384       -2.05392192028037      -0.648510238457021      -0.114664852366519
12         17.456296577576        18.4249372810997        8.65748646692084       -0.35044614813497      -0.292255833747574     -0.0837942450967618
13        13.1204527855953        13.5555861132571        8.64999152535952      0.0413002193543872        1.36719357258313      0.0340236870569807
14        13.0761336628244         18.358239616985         8.6105348547107        3.73149755828502        2.93151004118815       0.555422389572698
15        18.8687561061945        13.5859801735985        8.67463788002642      -0.946605106256409       -2.02470508028382      -0.284108318820763
16        18.8476103173974        18.4118070164816        8.65835454590113      0.0545558422232658      -0.177582850292674        -0.1101998195841
17        12.4187596332394        17.1862837387403        8.64881379510039        -2.1858847436467       -2.67272947179937      -0.681142238688109
18        12.4278245493096        14.7698753056334           8.65544549057      -0.535958218973499      -0.726375481710448      -0.163701639156117
19        19.5337567422443        14.7655626578241        8.64398554555203       0.429871003560589       0.302501768763624     -0.0774881903725637
20         19.513959662583        17.1712389305143        8.62662168755471        2.39008627238213        2.32153731302769       0.567934307622847
21        20.9419194538195        14.8112195170178        8.64363443119542      -0.427000290234271       0.404791559350953      -0.150938185225853
22         20.983666051458        17.1891629187831        8.68772468920731       -3.92845490175248        -3.9347882529925       -1.03823037054741
23        11.0124877697341        14.8063209260656        8.64871209657303      -0.771622035740825       -1.36542916716513       0.210329874525832
24        10.9726094297845        17.1026393889128        8.61117741663914        6.26329668859723        6.53335658157334         1.0536169505287
25        21.5742070084359        15.9794776258141        8.64433054769638        1.55515862737518        1.50051034509078       0.475680043676157
26        10.4157911538896        16.0098505580824        8.68595057941802       -4.83209992073872       -5.71222402396056      -0.586520037676037
27        21.6399026768894        18.2166287719917        8.68755663106538       0.099647479591393     -0.0736629332295975       0.140655487360317
28        21.5975670707969        13.7820863537915        8.64081478409676      0.0807182577070451      0.0851518690837585    -0.00798478317192692
29         10.342561270414        18.1573720069828        8.63959651968654      -0.978090042162864       -1.33615709123171      -0.233448262412207
30        10.3160774893602        13.7386814158294        8.60870649909969        2.01222903582455        3.40094304795291       0.275411654315309
31        12.6491491444334        12.6647371222841        8.70613232219076       -1.48243272198434       -1.86276469857639     -0.0283320061434016
32        12.5571311059057        19.3145109265157        8.62087760530643      -0.222035056587772      -0.276123200110396      -0.154342822986275
33        19.3345545294092        12.5765047310886        8.61109099645729       0.323789956996694        1.12864452089414       0.270765902143376
34        19.4097428767767        19.3934849300232        8.69304266963427      -0.716215879946856       -1.29883894953305      -0.045922699798264
35        14.9199165174532        12.5265905084659        8.61447994458632       0.209931755851785      0.0271465656238926     0.00146396839302955
36        14.9548361220339        19.4011331594927         8.6562610133519       0.168028773143125        0.69102422246081      0.0296479397385593
37        17.0295206299463        12.5825536156641        8.66837870592477       0.396703872947705       0.503580499636645        0.10645787927467
38        17.0540190880754         19.446675121129        8.69973863054444      -0.291478469432708      -0.780693869095843     -0.0449396142679098
39                       0                       0                5.656854                       0                       0                       0
40                       0                       0                2.828427                       0                       0                       0
41                       0                       0                       0                       0                       0                       0
42                       2                       2                5.656854                       0                       0                       0
43                       2                       2                2.828427                       0                       0                       0
44                       2                       2                       0                       0                       0                       0
45                       4                       0                5.656854                       0                       0                       0
46                       4                       0                2.828427                       0                       0                       0
47                       4                       0                       0                       0                       0                       0
48                       6                       2                5.656854                       0                       0                       0
49                       6                       2                2.828427                       0                       0                       0
50                       6                       2                       0                       0                       0                       0
51                       8                       0                5.656854                       0                       0                       0
52                       8                       0                2.828427                       0                       0                       0
53                       8                       0                       0                       0                       0                       0
54                      10                       2                5.656854                       0                       0                       0
55                      10                       2                2.828427                       0                       0                       0
56                      10                       2                       0                       0                       0                       0
57                      12                       0                5.656854                       0                       0                       0
58                      12                       0                2.828427                       0                       0                       0
59                      12                       0                       0                       0                       0                       0
60                      14                       2                5.656854                       0                       0                       0
61                      14                       2                2.828427                       0                       0                       0
62                      14                       2                       0                       0                       0                       0
63                      16                       0                5.656854                       0                       0                       0
64                      16                       0                2.828427                       0                       0                       0
65                      16                       0                       0                       0                       0                       0
66                      18                       2                5.656854                       0                       0                       0
67                      18                       2                2.828427                       0                       0                       0
68                      18                       2                       0                       0                       0                       0
69                      20                       0                5.656854                       0                       0                       0
70                      20                       0                2.828427                       0                       0                       0
71                      20                       0                       0                       0                       0                       0
72                      22                       2                5.656854                       0                       0                       0
73                      22                       2                2.828427                       0                       0                       0
74                      22                       2                       0                       0                       0                       0
75                      24                       0                5.656854                       0                       0                       0
76                      24                       0                2.828427                       0                       0                       0
77                      24                       0                       0                       0                       0                       0
78                      26                       2                5.656854                       0                       0                       0
79                      26                       2                2.828427                       0                       0                       0
80                      26                       2                       0                       0                       0                       0
81                      28                       0                5.656854                       0                       0                       0
82                      28                       0                2.828427                       0                       0                       0
83                      28                       0                       0                       0                       0                       0
84                      30                       2                5.656854                       0                       0                       0
85                      30                       2                2.828427                       0                       0                       0
86                      30                       2                       0                       0                       0                       0
87                       0                       4                5.656854                       0                       0                       0
88                       0                       4                2.828427                       0                       0                       0
89                       0                       4                       0                       0                       0                       0
90                       2                       6                5.656854                       0                       0                       0
91                       2                       6                2.828427                       0                       0                       0
92                       2                       6                       0                       0                       0                       0
93                       4                       4                5.656854                       0                       0                       0
94                       4                       4                2.828427                       0                       0                       0
95                       4                       4                       0                       0                       0                       0
96                       6                       6                5.656854                       0                       0                       0
97                       6                       6                2.828427                       0                       0                       0
98                       6                       6                       0                       0                       0                       0
99                       8                       4                5.656854                       0                       0                       0
100                       8                       4                2.828427                       0                       0                       0
101                       8                       4                       0                       0                       0                       0
102                      10                       6                5.656854                       0                       0                       0
103                      10                       6                2.828427                       0                       0                       0
104                      10                       6                       0                       0                       0                       0
105                      12                       4                5.656854                       0                       0                       0
106                      12                       4                2.828427                       0                       0                       0
107                      12                       4                       0                       0                       0                       0
108                      14                       6                5.656854                       0                       0                       0
109                      14                       6                2.828427                       0                       0                       0
110                      14                       6                       0                       0                       0                       0
111                      16                       4                5.656854                       0                       0                       0
112                      16                       4                2.828427                       0                       0                       0
113                      16                       4                       0                       0                       0                       0
114                      18                       6                5.656854                       0                       0                       0
115                      18                       6                2.828427                       0                       0                       0
116                      18                       6                       0                       0                       0                       0
117                      20                       4                5.656854                       0                       0                       0
118                      20                       4                2.828427                       0                       0                       0
119                      20                       4                       0                       0                       0                       0
120                      22                       6                5.656854                       0                       0                       0
121                      22                       6                2.828427                       0                       0                       0
122                      22                       6                       0                       0                       0                       0
123                      24                       4                5.656854                       0                       0                       0
124                      24                       4                2.828427                       0                       0                       0
125                      24                       4                       0                       0                       0                       0
126                      26                       6                5.656854                       0                       0                       0
127                      26                       6                2.828427                       0                       0                       0
128                      26                       6                       0                       0                       0                       0
129                      28                       4                5.656854                       0                       0                       0
130                      28                       4                2.828427                       0                       0                       0
131                      28                       4                       0                       0                       0                       0
132                      30                       6                5.656854                       0                       0                       0
133                      30                       6                2.828427                       0                       0                       0
134                      30                       6                       0                       0                       0                       0
135                       0                       8                5.656854                       0                       0                       0
136                       0                       8                2.828427                       0                       0                       0
137                       0                       8                       0                       0                       0                       0
138                       2                      10                5.656854                       0                       0                       0
139                       2                      10                2.828427                       0                       0                       0
140                       2                      10                       0                       0                       0                       0
141                       4                       8                5.656854                       0                       0                       0
142                       4                       8                2.828427                       0                       0                       0
143                       4                       8                       0                       0                       0                       0
144                       6                      10                5.656854                       0                       0                       0
145                       6                      10                2.828427                       0                       0                       0
146                       6                      10                       0                       0                       0                       0
147                       8                       8                5.656854                       0                       0                       0
148                       8                       8                2.828427                       0                       0                       0
149                       8                       8                       0                       0                       0                       0
150                      10                      10                5.656854                       0                       0                       0
151                      10                      10                2.828427                       0                       0                       0
152                      10                      10                       0                       0                       0                       0
153                      12                       8                5.656854                       0                       0                       0
154                      12                       8                2.828427                       0                       0                       0
155                      12                       8                       0                       0                       0                       0
156                      14                      10                5.656854                       0                       0                       0
157                      14                      10                2.828427                       0                       0                       0
158                      14                      10                       0                       0                       0                       0
159                      16                       8                5.656854                       0                       0                       0
160                      16                       8                2.828427                       0                       0                       0
161                      16                       8                       0                       0                       0                       0
162                      18                      10                5.656854                       0                       0                       0
163                      18                      10                2.828427                       0                       0                       0
164                      18                      10                       0                       0                       0                       0
165                      20                       8                5.656854                       0                       0                       0
166                      20                       8                2.828427                       0                       0                       0
167                      20                       8                       0                       0                       0                       0
168                      22                      10                5.656854                       0                       0                       0
169                      22                      10                2.828427                       0                       0                       0
170                      22                      10                       0                       0                       0                       0
171                      24                       8                5.656854                       0                       0                       0
172                      24                       8                2.828427                       0                       0                       0
173                      24                       8                       0                       0                       0                       0
174                      26                      10                5.656854                       0                       0                       0
175                      26                      10                2.828427                       0                       0                       0
176                      26                      10                       0                       0                       0                       0
177                      28                       8                5.656854                       0                       0                       0
178                      28                       8                2.828427                       0                       0                       0
179                      28                       8                       0                       0                       0                       0
180                      30                      10                5.656854                       0                       0                       0
181                      30                      10                2.828427                       0                       0                       0
182                      30                      10                       0                       0                       0                       0
183                       0                      12                5.656854                       0                       0                       0
184                       0                      12                2.828427                       0                       0                       0
185                       0                      12                       0                       0                       0                       0
186                       2                      14                5.656854                       0                       0                       0
187                       2                      14                2.828427                       0                       0                       0
188                       2                      14                       0                       0                       0                       0
189                       4                      12                5.656854                       0                       0                       0
190                       4                      12                2.828427                       0                       0                       0
191                       4                      12                       0                       0                       0                       0
192                       6                      14                5.656854                       0                       0                       0
193                       6                      14                2.828427                       0                       0                       0
194                       6                      14                       0                       0                       0                       0
195                       8                      12                5.656854                       0                       0                       0
196                       8                      12                2.828427                       0                       0                       0
197                       8                      12                       0                       0                       0                       0
198                      10                      14                5.656854                       0                       0                       0
199                      10                      14                2.828427                       0                       0                       0
200                      10                      14                       0                       0                       0                       0
201                      12                      12                5.656854                       0                       0                       0