ITEM: TIMESTEP
0
ITEM: NUMBER OF ATOMS
422
ITEM: BOX BOUNDS ff ff ff
0.0000000000000000e+00 2.3200000000000000e+02
0.0000000000000000e+00 2.3200000000000000e+02
0.0000000000000000e+00 2.3200000000000000e+02
ITEM: ATOMS id xu yu zu fx fy fz
1        113.145932193839        114.583520815677              108.656854     -0.0318573432111272      0.0225218635985046      0.0972438188032714
2        118.827484840071        114.589226241634              108.656854      0.0288190136457245       0.023319647957684       0.100277159090944
3        117.402344993917        114.587795112765              108.656854     -0.0249310764404688      0.0303443938617407       0.122671750271121
4        114.571072038949        114.584951942936              108.656854      0.0301905531249118      0.0308590516868091       0.126017618440384
5        116.701075167769        113.349724850164              108.656854     -0.0195474999208873    -0.00597494351476721      0.0440657858345614
6        115.274826990867        113.348292608712              108.656854      0.0278512547671639    -0.00650940279017112      0.0462861122207821
7        115.272341865028        115.823022205388              108.656854     0.00648016295767189     0.00522114897236613     0.00543672545326863
8        116.698590041422        115.824454446583              108.656854     0.00135030583358907     0.00501379728752996     0.00488265782862654
9        114.517756920757        112.148446241175              108.656854     0.00613434785007763     -0.0149424630630896      0.0126311741003316
10        117.460553482731        112.151401403886              108.656854     -0.0247050750102795     -0.0151608854730452      0.0131882849831329
11        114.512863550773        117.021345651893              108.656854      0.0190735325460552     -0.0537070766275102      0.0920633325203908
12        117.455660110655        117.024300814179              108.656854     -0.0382047062149458     -0.0527808609766169      0.0911522140780801
13        113.127311260236        112.162444587898              108.656854     0.00173542120659588     -0.0147508207141012      0.0030027004453908
14        113.122448808114        117.004554762274              108.656854     -0.0144896074278727     -0.0387424930920603      0.0588869761966596
15        118.850968226168        112.168192293572              108.656854     -0.0175834476435505     -0.0153982809989019     0.00555294812166025
16        118.846105771496         117.01030247058              108.656854    -0.00117621806864344     -0.0393262421576598      0.0639570003912926
17        112.426795838139         115.79431994364              108.656854     0.00308727169848745     0.00860621391780906     0.00458085753083068
18         112.42922905874        113.371279815063              108.656854     -0.0110784075573818    -0.00376743798141383      0.0264646303181982
19        119.546621196692        113.378427112272              108.656854      0.0219145314782624    -0.00401521136357268      0.0266186796974943
20        119.544187975028         115.80146724296              108.656854     0.00686322406832293     0.00851819653971518     0.00333610213340488
21        120.955135022624        113.424435085822              108.656854       0.126449636320708       0.158492693443264       0.040910635550567
22        120.952791362251        115.758288229576              108.656854       0.150974334023805     -0.0506015070782011      0.0317717705464385
23        111.020625673161        113.414458829493              108.656854    -0.00828361773535739       0.157104493119904      0.0653081824885378
24        111.018282013145        115.748311972274              108.656854      -0.032722581514867     -0.0480829230726637      0.0537184846234129
25        121.586726460739        114.591997078118              108.656854     -0.0663148450667276      0.0041756671278302      0.0913300906970681
26        110.386690574472        114.580749978664              108.656854   -0.000615867673478273     0.00346196605380753      0.0790206910903056
27        121.609196045824        116.785922140926              108.656854      -0.169413213411579      -0.125323230000387      0.0670551583872228
28          121.6136022867        112.398121569695              108.656854      -0.172213779765599     -0.0977085313449964      0.0178684346055626
29        110.359814750727        116.774625487296              108.656854      0.0199719300180828      -0.130935678319284      0.0345548042588147
30         110.36422099026         112.38682491673              108.656854      0.0225612542316229     -0.0932773080919922      -0.014984982509118
31        112.599866822243        111.215454800093              108.656854     -0.0169208930627922    0.000396775186844015        0.01071022292886
32        112.593103500599        117.950483321209              108.656854     -0.0181264468309458      0.0286826300485385     -0.0111051442847501
33        119.380313532952        111.222263734631              108.656854      0.0589898112952171     0.00171344785812553     0.00490006243751755
34        119.373550207142        117.957292260389              108.656854      0.0596474050853554      0.0270265790627528     -0.0169034106112795
35        114.962286572867         111.16896056388              108.656854     0.00530547228640776    0.000791295572036164    -0.00159073060196909
36        114.955425108682        118.001722146141              108.656854     0.00837556597017058      0.0191756610184155     -0.0094660439838773
37        117.017991924022        111.171024909739              108.656854      0.0212061477764671    0.000956280111855466    -0.00246453665784439
38        117.011130457531        118.003786490585              108.656854      0.0178407445561485      0.0188322467311241     -0.0106057797475476
39                     100                     100              105.656854       0.212285953059086       0.214424900079316      -0.975562044630892
40                     100                     100              102.828427       0.431952490099901       0.430092160732059   -0.000551286106276667
41                     100                     100                     100       0.212152162502407       0.213660069372647       0.976487278883952
42                     102                     102              105.656854      -0.344719354441758      -0.348458065473521      -0.278258051603929
43                     102                     102              102.828427     -0.0508153734948334     -0.0477205336541183     0.00105944296818597
44                     102                     102                     100      -0.344461613411591      -0.346813105553406       0.276539169338492
45                     104                     100              105.656854      0.0955348039372992        0.96080146721998       -0.80876586335595
46                     104                     100              102.828427     -0.0635149486698031       0.726194756758657   -0.000504150964230212
47                     104                     100                     100      0.0959309002517915       0.959738423476087       0.809563337109465
48                     106                     102              105.656854      -0.148396391481131      -0.516328786382758      -0.381857715807772
49                     106                     102              102.828427        0.14158727857151      0.0673705090258927    0.000822722003355051
50                     106                     102                     100       -0.14964305246082      -0.514157019559926       0.380606875626229
51                     108                     100              105.656854        0.10846752943761        1.06048349508702      -0.801852395058375
52                     108                     100              102.828427      -0.110710157478007       0.639641591160322    0.000203942749584909
53                     108                     100                     100       0.110029600842189        1.06013798109869       0.801444495768127
54                     110                     102              105.656854      -0.140640394148192      -0.581883676821771      -0.373693671923148
55                     110                     102              102.828427       0.146250378781933        0.13475617327251    -0.00116349806259245
56                     110                     102                     100      -0.144549754673986      -0.582543830451417       0.375689620496946
57                     112                     100              105.656854       0.130317297021326        1.10732576063556       -0.81105593390112
58                     112                     100              102.828427       -0.13450514756385       0.590167063441925     0.00165080510561173
59                     112                     100                     100       0.132250091631672        1.10945940264386        0.80828682573552
60                     114                     102              105.656854      -0.162136817709658      -0.615555573855533      -0.360085567235303
61                     114                     102              102.828427       0.167700139683839       0.173071038737637    -0.00401436160338818
62                     114                     102                     100      -0.164718155321197      -0.621893743104131         0.3666821403171
63                     116                     100              105.656854        0.16659162374381        1.14179061430362      -0.821902516548382
64                     116                     100              102.828427      -0.170773944363912       0.553604924976181     0.00249545171929793
65                     116                     100                     100        0.16658869790394        1.14557048388946       0.817771395041023
66                     118                     102              105.656854      -0.211170735723862      -0.647766030315372      -0.346656234408717
67                     118                     102              102.828427        0.21539561515431       0.206323416135836    -0.00400896043025255
68                     118                     102                     100      -0.208579384908819      -0.654089197063557       0.353243951423917
69                     120                     100              105.656854       0.224561437174321        1.18141488152873      -0.835622615826343
70                     120                     100              102.828427      -0.229583055658612       0.513655757843097     0.00164856402365201
71                     120                     100                     100       0.222630466128308        1.18354196617157       0.832857138878297
72                     122                     102              105.656854      -0.291202413949447      -0.688061203038912      -0.330165735606831
73                     122                     102              102.828427       0.295178427906492       0.244325985362685    -0.00116107177923548
74                     122                     102                     100      -0.287308334975866       -0.68871413082719       0.332157607997407
75                     124                     100              105.656854        0.32740512825644        1.23712546749067      -0.852051192582602
76                     124                     100              102.828427      -0.323800777800892       0.459257167053547    0.000205812885564423
77                     124                     100                     100       0.325849680465864         1.2367827184585       0.851640419844354
78                     126                     102              105.656854      -0.462358876178293      -0.729118329576063       -0.33242275447997
79                     126                     102              102.828427       0.397821833592547       0.282543263364698     0.00081475869629093
80                     126                     102                     100      -0.461119797320123      -0.726961900426334       0.331184414972997
81                     128                     100              105.656854       0.708494180788689        1.34144322475432       -0.75456744104625
82                     128                     100              102.828427      -0.281154190933329       0.395578607975653    -0.00049910557638834
83                     128                     100                     100       0.708099426792759        1.34038815925351       0.755356854770763
84                     130                     102              105.656854       -1.34036816386294      -0.709624239010343      -0.755696510838694
85                     130                     102              102.828427      -0.395945847487973       0.281618730385142     0.00105063415675511
86                     130                     102                     100       -1.34062270605493      -0.707992029255084       0.753991665874908
87                     100                     104              105.656854       0.959728665285748       0.100710526719048      -0.808111273646118
88                     100                     104              102.828427       0.727289134345984     -0.0676795333471887    -0.00146444344457842
89                     100                     104                     100       0.958706316404536      0.0989769154269222       0.810515718140114
90                     102                     106              105.656854      -0.515265608954597      -0.158399139796889      -0.383639915712674
91                     102                     106              102.828427      0.0659385731963008       0.148906511692929     0.00312209364001827
92                     102                     106                     100      -0.512680806575011      -0.154440973584205       0.378639546419268
93                     104                     104              105.656854       0.247639687454895       0.254815156275415       -0.38772846757128
94                     104                     104              102.828427      -0.180020493164352      -0.185489415513602    -0.00218123419136911
95                     104                     104                     100        0.24717688488705       0.250948171680718       0.391183333559194
96                     106                     106              105.656854      -0.233991754071346      -0.249706971945478      -0.507281935012148
97                     106                     106              102.828427       0.224981149458878       0.235266301974218     0.00472442402907234
98                     106                     106                     100      -0.233612719622137      -0.239728645390336       0.499474046758475
99                     108                     104              105.656854       0.170678870418765       0.341393444287592       -0.37427801742221
100                     108                     104              102.828427      -0.175436898289664      -0.269966282581255    -0.00106733407897935
101                     108                     104                     100       0.175034870855419       0.337125178849815        0.37592893479548
102                     110                     106              105.656854      -0.172645450554789      -0.297038557688416      -0.491384027636515
103                     110                     106              102.828427       0.187681314745143       0.286744345455917   -0.000440395941961345
104                     110                     106                     100      -0.188880891102913      -0.291997290950753       0.491940107594014
105                     112                     104              105.656854       0.161390127867638       0.376747658305146      -0.392470785739068
106                     112                     104              102.828427      -0.171058908038466      -0.313272578612322     0.00449824810864968
107                     112                     104                     100       0.170270920158237       0.382934380367061       0.384920879310967
108                     114                     106              105.656854      -0.180476418502973      -0.295590880432153      -0.458177052447848
109                     114                     106              102.828427       0.194073293665425        0.30855439453616     -0.0135318542325573
110                     114                     106                     100      -0.193765701220754      -0.321420769914376       0.483831250415498
111                     116                     104              105.656854       0.198217389565699       0.397839880216091      -0.410108579820059
112                     116                     104              102.828427      -0.203412876510355      -0.340973361471766     0.00848273290196093
113                     116                     104                     100       0.198194004334954       0.412778267253616       0.395928741114118
114                     118                     106              105.656854      -0.248824363857831      -0.317911005426616      -0.442331213652346
115                     118                     106              102.828427        0.24678469843706       0.331489886807737     -0.0134933766882364
116                     118                     106                     100      -0.235451775319136      -0.343624602091468       0.467902633076471
117                     120                     104              105.656854        0.26601605967554       0.433458065779316      -0.423178102330269
118                     120                     104              102.828427      -0.267933158399626       -0.37179908987073     0.00448041378435089
119                     120                     104                     100       0.257149042487655        0.43959526355756       0.415659104411777
120                     122                     106              105.656854      -0.327496493807406      -0.367060818089144      -0.439620546141852
121                     122                     106              102.828427       0.324229162338729       0.359023909116012   -0.000423896447244502
122                     122                     106                     100      -0.311385279794109       -0.36197889092842       0.440148980894729
123                     124                     104              105.656854       0.370531211981152       0.466681670504262      -0.437610227410488
124                     124                     104              102.828427      -0.364216291863484       -0.39917415243349    -0.00105913640452543
125                     124                     104                     100       0.366209156150367        0.46243540225993       0.439246573707564
126                     126                     106              105.656854      -0.465237381039921      -0.373947601678131      -0.444158817321189
127                     126                     106              102.828427        0.40134611087686       0.363491023044835     0.00468800092143773
128                     126                     106                     100      -0.465623176838458      -0.364051542469125       0.436418327213078
129                     128                     104              105.656854       0.727533054905119       0.464289984725214      -0.329884183872562
130                     128                     104              102.828427       -0.28257524356326      -0.398166233653216    -0.00216318116620911
131                     128                     104                     100       0.727991588811572       0.460454377308726       0.333310360975118
132                     130                     106              105.656854       -1.23514136286323      -0.329640309203942      -0.854463864422066
133                     130                     106              102.828427      -0.459479750951776       0.324637551669156     0.00309652071061547
134                     130                     106                     100       -1.23770265699873      -0.325715353604197       0.849504099823377
135                     100                     108              105.656854        1.06450667715263       0.116963822980136      -0.799351372000499
136                     100                     108              102.828427       0.637364635948382      -0.117072537816325     -0.0031907428095121
137                     100                     108                     100        1.06100333259887        0.11428414484235        0.80451063436267
138                     102                     110              105.656854      -0.593018317605356      -0.155423678362487      -0.380599850643705
139                     102                     110              102.828427       0.140061206062964       0.156093814094911     0.00678773066405924
140                     102                     110                     100      -0.584203412494135      -0.150348584169948       0.369658352600804
141                     104                     108              105.656854       0.342104801909173       0.192074421589028      -0.368317930962637
142                     104                     108              102.828427      -0.268269985505234      -0.188687033731566    -0.00713685704472299
143                     104                     108                     100       0.334908168272308       0.182442327452108       0.380076081612574
144                     106                     110              105.656854      -0.308317281064846      -0.221387510241961      -0.516982702964621
145                     106                     110              102.828427       0.284536526343545       0.210487975038605      0.0163187562025108
146                     106                     110                     100      -0.288280345453708      -0.199285044272739       0.483617896367473
147                     108                     108              105.656854       0.222293979685984       0.263986923344276      -0.347552333667688
148                     108                     108              102.828427      -0.226865043737276      -0.246794854349092    -0.00952204838727654
149                     108                     108                     100       0.226716244013421        0.23629122159328       0.369453372241217
150                     110                     110              105.656854       -0.15187794198816      -0.275474142260111      -0.528159869893499
151                     110                     110              102.828427        0.20938236673954       0.243784035044084      0.0103838587216744
152                     110                     110                     100      -0.219501677384624      -0.232649573602021       0.474630308647332
153                     112                     108              105.656854       0.151478277251005       0.255070061336414      -0.400637468268921
154                     112                     108              102.828427      -0.190704730831584      -0.269012704300468      0.0112271314213161
155                     112                     108                     100       0.198835526128904       0.267301682256653       0.376721342168762
156                     114                     110              105.656854      -0.160078385739465      -0.193818816330258      -0.348500565855637
157                     114                     110              102.828427       0.203827251956015       0.247640566911264     -0.0354892211369689
158                     114                     110                     100      -0.211791883739347      -0.249804498158362       0.472811883472529
159                     116                     108              105.656854       0.220348719267596       0.233420880834091      -0.450688147031735
160                     116                     108              102.828427      -0.226144885799337      -0.278966142405826      0.0292475463530134
161                     116                     108                     100        0.22019879215154       0.285681352139406       0.385515627204802
162                     118                     110              105.656854      -0.303180630573048      -0.204912480791081      -0.331383308183086
163                     118                     110              102.828427       0.271669524660334       0.259009619888748     -0.0353299646715633
164                     118                     110                     100      -0.250927803826989      -0.260780960414172       0.455413489682195
165                     120                     108              105.656854       0.323476785123172       0.289029089284146       -0.43516368987621
166                     120                     108              102.828427      -0.297488708466698      -0.303750991259117      0.0111086141101937
167                     120                     108                     100       0.276222109045579        0.30090755277374       0.411565601340742
168                     122                     110              105.656854      -0.383692137933502      -0.309283168342192      -0.471668279567692
169                     122                     110              102.828427       0.340128987347005       0.278427766479577      0.0104873302687551
170                     122                     110                     100      -0.317241379743493      -0.266157226436408        0.41816773422744
171                     124                     108              105.656854       0.374476645340447         0.3334193785393       -0.42008689197734
172                     124                     108              102.828427      -0.370039935339543      -0.318692205938037    -0.00947626614362381
173                     124                     108                     100        0.37019019589565        0.30592931847519       0.441783458716786
174                     126                     110              105.656854      -0.427236333706607      -0.277137977111033      -0.445332908732701
175                     126                     110              102.828427       0.379080601925834       0.268205566919227      0.0162013580777378
176                     126                     110                     100      -0.447137645377514      -0.255201549706628       0.412323374638698
177                     128                     108              105.656854       0.684461253346148       0.296123687558254      -0.323659822607935
178                     128                     108              102.828427      -0.245507285824232      -0.296192114056372    -0.00707782489610786
179                     128                     108                     100       0.691592965705946       0.286577400366526       0.335311418245079
180                     130                     110              105.656854       -1.17650629667755      -0.227762679574331      -0.840550776876041
181                     130                     110              102.828427      -0.514159533024853       0.230841269358714     0.00673277979875398
182                     130                     110                     100       -1.18524128487362      -0.222725895852501       0.829700466060694
183                     100                     112              105.656854        1.11984636224086       0.137109089562475      -0.805880215960312
184                     100                     112              102.828427       0.582582187415253      -0.139410916172967    -0.00502946397628918
185                     100                     112                     100        1.11311383880872       0.135381898677342       0.813967221658909
186                     102                     114              105.656854      -0.640428601752009      -0.167776814556964      -0.372096612289034
187                     102                     114              102.828427       0.185740056935818       0.171470161868263     0.00928000405378858
188                     102                     114                     100      -0.626849501396287      -0.166929150973522       0.357063060844749
189                     104                     112              105.656854       0.406689835163521       0.184137637974542      -0.371346511783078
190                     104                     112              102.828427      -0.323780753687836      -0.184079928937335     -0.0141613533954879
191                     104                     112                     100       0.385211254709376       0.176915942693553       0.396168021748683
192                     106                     114              105.656854      -0.356064499479146      -0.200512083591981      -0.518947970737398
193                     106                     114              102.828427       0.322290785639705       0.204691326608504      0.0249829263619852
194                     106                     114                     100      -0.322501690511861      -0.198640969437924       0.465853707377719
195                     108                     112              105.656854       0.296811890556671       0.232701258333504       -0.27315969447429
196                     108                     112              102.828427      -0.260605702808172      -0.220072235151094     -0.0268660856600862
197                     108                     112                     100       0.260434223918525       0.210441620293088       0.390619784883801
198                     110                     114              105.656854        -0.1356935495299        -0.1852456850867      -0.690903290637535
199                     110                     114              102.828427       0.220813917443693       0.225451679776833      0.0147111662544153
200                     110                     114                     100      -0.238659854477832      -0.220116173541882       0.456413495448824
201                     112                     112              105.656854      0.0691937202713336       0.204576861172551      -0.438702135245686