ITEM: TIMESTEP
0
ITEM: NUMBER OF ATOMS
422
ITEM: BOX BOUNDS pp pp pp
0.0000000000000000e+00 3.2000000000000000e+01
0.0000000000000000e+00 3.2000000000000000e+01
0.0000000000000000e+00 3.2000000000000000e+01
ITEM: ATOMS id xu yu zu fx fy fz
1        13.1527270108916        15.9903156327303        8.66364481705299        1.38072203794356        1.11570091710347       0.354795448641903
2        18.7876729582239        15.9494143597872         8.6170381181528        3.72120492167806        2.97793167285281       0.652041290836274
3        17.4238914978838        16.0093416167318        8.67839650396687       -3.45502615189592       -3.49651882283996      -0.652797216478604
4        14.6114666087695        16.0253465127563        8.69724456982047       -3.18779369288009       -3.52381338782931      -0.624200327264996
5        16.7038347688625         14.752484451257        8.65960960109331      -0.120423286389338      -0.211623361144297     -0.0537356696963758
6        15.2829666925414        14.7564323103859        8.66498970167398      -0.541788915957399      -0.803840546526554     -0.0455276263398677
7        15.2800167074862        17.2306970478464        8.66452484245866       0.902863592902723       0.911705067205328        0.23120984227703
8        16.7005979179516        17.2264623231126        8.65885787653004         1.7890549466578        2.30571313189927        0.57007849632317
9        14.4851655616133        13.5158548820311        8.62425864085594        3.64295376346644        3.26732973243455       0.473565134242667
10         17.428912433034        13.5197603541887        8.62520895030267        1.11189486615771        1.76023088333826       0.163968399296898
11        14.5153063156204        18.4237884167405        8.65929276484751       0.899166511321966       0.833332042248764      0.0876673837787564
12         17.485716528821        18.4543572323447        8.68690641816581       -4.40844950248124       -4.03322836148525      -0.659600713132561
13        13.1612612816738        13.5963946093357        8.69080002143806        -5.6778274264887        -5.4160311948358      -0.938458116938867
14        13.1441017835326        18.4262077376932        8.67850297541894      -0.285050211102536       -0.21252492662748     -0.0703950995849056
15        18.8126595968547        13.5298836642587        8.61854137068665        1.22880697121521        1.34804425410544       0.251290476172907
16         18.798551482927        18.3627481820112        8.60929571143072        4.11748810157421        3.15415446481289       0.447099178877996
17         12.476366480974         17.243890586475        8.70642064283502       -3.22115835562969       -2.82465603113349      -0.331200415163258
18        12.4083194960982        14.7503702524221        8.63594043735864         4.7966449071595        5.50660108621374        1.01296516316555
19        19.5095822389507        14.7413881545305        8.61981104225843       0.677234076719845       0.558948777026316      -0.175539929650226
20         19.534556497994        17.1918357659253        8.64721852296576       -2.15926052601561       -3.39493146107012      -0.745867308490632
21        20.9470515815856         14.816351644784        8.64876655896157        2.64677848111951        3.06552097919815       0.657859348861676
22        20.9362247087999         17.141721576125        8.64028334654921        3.49688397385389        4.03159671927839       0.820597597264988
23        11.0606908987978        14.8545240551292        8.69691522563666       -4.62311404792842       -4.48328318178885       -1.18005804639639
24        11.0394891393421        17.1695190984704        8.67805712619676       -4.24463989129656       -4.59367873489919       -1.11335956453562
25        21.6274493594007        16.0327199767789        8.69757289866119       -4.91581628794998       -4.59059592682616      -0.877861591896423
26        10.3514114944406        15.9454708986334        8.62157091996896          6.478933813603        5.46263362030658        1.28503990246706
27        21.6124510492912        18.1891771443936        8.66010500346721       -1.91636848609024       -1.10125656169761      -0.200817615235131
28        21.6370371684689        13.8215564514635        8.68028488176877      -0.530089867510607       -1.03878112726742      -0.104172095025372
29        10.3104921508151        18.1253028873839        8.60752740008763        1.20298398686799        2.24707237459813       0.245382457179661
30        10.4110822904807          13.83368621695        8.70371130022025      0.0981833185750148      -0.849522586042655       0.267021585766311
31        12.5626378665668        12.5782258444175        8.61962104432415        1.74930174565116        2.51631847636593       0.449222148191889
32        12.5596885430499        19.3170683636599        8.62343504245062       0.321726716918792       0.860134940415879       0.124976612225885
33        19.4257151229956         12.667665324675        8.70225159004367      -0.509246191869345        -1.2316254287136      -0.169509480453896
34        19.3252971759527        19.3090392291993         8.6085969688103       0.119264878030125     -0.0302331191735963      -0.123627586047612
35        14.9202048028576        12.5268787938702        8.61476822999067     -0.0201161125679339      0.0778168092345338     -0.0852328607751521
36        14.9583464690847        19.4046435065435        8.65977136040271      -0.115809974948984     -0.0256728812443728     -0.0835947256011942
37        17.0248032188738        12.5778362045916        8.66366129485232       -1.12674212357983       -1.27020078049919    -0.00281009136374898
38        16.9819611267919        19.3746171598454        8.62768066926088       0.676629441165911        1.13123247300648       0.143585614500215
39                       0                       0                5.656854                       0                       0                       0
40                       0                       0                2.828427                       0                       0                       0
41                       0                       0                       0                       0                       0                       0
42                       2                       2                5.656854                       0                       0                       0
43                       2                       2                2.828427                       0                       0                       0
44                       2                       2                       0                       0                       0                       0
45                       4                       0                5.656854                       0                       0                       0
46                       4                       0                2.828427                       0                       0                       0
47                       4                       0                       0                       0                       0                       0
48                       6                       2                5.656854                       0                       0                       0
49                       6                       2                2.828427                       0                       0                       0
50                       6                       2                       0                       0                       0                       0
51                       8                       0                5.656854                       0                       0                       0
52                       8                       0                2.828427                       0                       0                       0
53                       8                       0                       0                       0                       0                       0
54                      10                       2                5.656854                       0                       0                       0
55                      10                       2                2.828427                       0                       0                       0
56                      10                       2                       0                       0                       0                       0
57                      12                       0                5.656854                       0                       0                       0
58                      12                       0                2.828427                       0                       0                       0
59                      12                       0                       0                       0                       0                       0
60                      14                       2                5.656854                       0                       0                       0
61                      14                       2                2.828427                       0                       0                       0
62                      14                       2                       0                       0                       0                       0
63                      16                       0                5.656854                       0                       0                       0
64                      16                       0                2.828427                       0                       0                       0
65                      16                       0                       0                       0                       0                       0
66                      18                       2                5.656854                       0                       0                       0
67                      18                       2                2.828427                       0                       0                       0
68                      18                       2                       0                       0                       0                       0
69                      20                       0                5.656854                       0                       0                       0
70                      20                       0                2.828427                       0                       0                       0
71                      20                       0                       0                       0                       0                       0
72                      22                       2                5.656854                       0                       0                       0
73                      22                       2                2.828427                       0                       0                       0
74                      22                       2                       0                       0                       0                       0
75                      24                       0                5.656854                       0                       0                       0
76                      24                       0                2.828427                       0                       0                       0
77                      24                       0                       0                       0                       0                       0
78                      26                       2                5.656854                       0                       0                       0
79                      26                       2                2.828427                       0                       0                       0
80                      26                       2                       0                       0                       0                       0
81                      28                       0                5.656854                       0                       0                       0
82                      28                       0                2.828427                       0                       0                       0
83                      28                       0                       0                       0                       0                       0
84                      30                       2                5.656854                       0                       0                       0
85                      30                       2                2.828427                       0                       0                       0
86                      30                       2                       0                       0                       0                       0
87                       0                       4                5.656854                       0                       0                       0
88                       0                       4                2.828427                       0                       0                       0
89                       0                       4                       0                       0                       0                       0
90                       2                       6                5.656854                       0                       0                       0
91                       2                       6                2.828427                       0                       0                       0
92                       2                       6                       0                       0                       0                       0
93                       4                       4                5.656854                       0                       0                       0
94                       4                       4                2.828427                       0                       0                       0
95                       4                       4                       0                       0                       0                       0
96                       6                       6                5.656854                       0                       0                       0
97                       6                       6                2.828427                       0                       0                       0
98                       6                       6                       0                       0                       0                       0
99                       8                       4                5.656854                       0                       0                       0
100                       8                       4                2.828427                       0                       0                       0
101                       8                       4                       0                       0                       0                       0
102                      10                       6                5.656854                       0                       0                       0
103                      10                       6                2.828427                       0                       0                       0
104                      10                       6                       0                       0                       0                       0
105                      12                       4                5.656854                       0                       0                       0
106                      12                       4                2.828427                       0                       0                       0
107                      12                       4                       0                       0                       0                       0
108                      14                       6                5.656854                       0                       0                       0
109                      14                       6                2.828427                       0                       0                       0
110                      14                       6                       0                       0                       0                       0
111                      16                       4                5.656854                       0                       0                       0
112                      16                       4                2.828427                       0                       0                       0
113                      16                       4                       0                       0                       0                       0
114                      18                       6                5.656854                       0                       0                       0
115                      18                       6                2.828427                       0                       0                       0
116                      18                       6                       0                       0                       0                       0
117                      20                       4                5.656854                       0                       0                       0
118                      20                       4                2.828427                       0                       0                       0
119                      20                       4                       0                       0                       0                       0
120                      22                       6                5.656854                       0                       0                       0
121                      22                       6                2.828427                       0                       0                       0
122                      22                       6                       0                       0                       0                       0
123                      24                       4                5.656854                       0                       0                       0
124                      24                       4                2.828427                       0                       0                       0
125                      24                       4                       0                       0                       0                       0
126                      26                       6                5.656854                       0                       0                       0
127                      26                       6                2.828427                       0                       0                       0
128                      26                       6                       0                       0                       0                       0
129                      28                       4                5.656854                       0                       0                       0
130                      28                       4                2.828427                       0                       0                       0
131                      28                       4                       0                       0                       0                       0
132                      30                       6                5.656854                       0                       0                       0
133                      30                       6                2.828427                       0                       0                       0
134                      30                       6                       0                       0                       0                       0
135                       0                       8                5.656854                       0                       0                       0
136                       0                       8                2.828427                       0                       0                       0
137                       0                       8                       0                       0                       0                       0
138                       2                      10                5.656854                       0                       0                       0
139                       2                      10                2.828427                       0                       0                       0
140                       2                      10                       0                       0                       0                       0
141                       4                       8                5.656854                       0                       0                       0
142                       4                       8                2.828427                       0                       0                       0
143                       4                       8                       0                       0                       0                       0
144                       6                      10                5.656854                       0                       0                       0
145                       6                      10                2.828427                       0                       0                       0
146                       6                      10                       0                       0                       0                       0
147                       8                       8                5.656854                       0                       0                       0
148                       8                       8                2.828427                       0                       0                       0
149                       8                       8                       0                       0                       0                       0
150                      10                      10                5.656854                       0                       0                       0
151                      10                      10                2.828427                       0                       0                       0
152                      10                      10                       0                       0                       0                       0
153                      12                       8                5.656854                       0                       0                       0
154                      12                       8                2.828427                       0                       0                       0
155                      12                       8                       0                       0                       0                       0
156                      14                      10                5.656854                       0                       0                       0
157                      14                      10                2.828427                       0                       0                       0
158                      14                      10                       0                       0                       0                       0
159                      16                       8                5.656854                       0                       0                       0
160                      16                       8                2.828427                       0                       0                       0
161                      16                       8                       0                       0                       0                       0
162                      18                      10                5.656854                       0                       0                       0
163                      18                      10                2.828427                       0                       0                       0
164                      18                      10                       0                       0                       0                       0
165                      20                       8                5.656854                       0                       0                       0
166                      20                       8                2.828427                       0                       0                       0
167                      20                       8                       0                       0                       0                       0
168                      22                      10                5.656854                       0                       0                       0
169                      22                      10                2.828427                       0                       0                       0
170                      22                      10                       0                       0                       0                       0
171                      24                       8                5.656854                       0                       0                       0
172                      24                       8                2.828427                       0                       0                       0
173                      24                       8                       0                       0                       0                       0
174                      26                      10                5.656854                       0                       0                       0
175                      26                      10                2.828427                       0                       0                       0
176                      26                      10                       0                       0                       0                       0
177                      28                       8                5.656854                       0                       0                       0
178                      28                       8                2.828427                       0                       0                       0
179                      28                       8                       0                       0                       0                       0
180                      30                      10                5.656854                       0                       0                       0
181                      30                      10                2.828427                       0                       0                       0
182                      30                      10                       0                       0                       0                       0
183                       0                      12                5.656854                       0                       0                       0
184                       0                      12                2.828427                       0                       0                       0
185                       0                      12                       0                       0                       0                       0
186                       2                      14                5.656854                       0                       0                       0
187                       2                      14                2.828427                       0                       0                       0
188                       2                      14                       0                       0                       0                       0
189                       4                      12                5.656854                       0                       0                       0
190                       4                      12                2.828427                       0                       0                       0
191                       4                      12                       0                       0                       0                       0
192                       6                      14                5.656854                       0                       0                       0
193                       6                      14                2.828427                       0                       0                       0
194                       6                      14                       0                       0                       0                       0
195                       8                      12                5.656854                       0                       0                       0
196                       8                      12                2.828427                       0                       0                       0
197                       8                      12                       0                       0                       0                       0
198                      10                      14                5.656854                       0                       0                       0
199                      10                      14                2.828427                       0                       0                       0
200                      10                      14                       0                       0                       0                       0
201                      12                      12                5.656854                       0                       0                       0