ITEM: TIMESTEP
0
ITEM: NUMBER OF ATOMS
422
ITEM: BOX BOUNDS ff ff ff
0.0000000000000000e+00 2.3200000000000000e+02
0.0000000000000000e+00 2.3200000000000000e+02
0.0000000000000000e+00 2.3200000000000000e+02
ITEM: ATOMS id xu yu zu fx fy fz
1        112.245932193839        115.983520815677              108.656854    0.000885958108169814    -0.00118424812410189    -0.00595296989949243
2        117.927484840071        115.989226241634              108.656854    -0.00652020306036417   -0.000737654973305162      0.0190311917745205
3        116.502344993917        115.987795112765              108.656854     0.00138410255584956     0.00301085832600433     0.00147144150217407
4        113.671072038949        115.984951942936              108.656854    0.000468916045719256     0.00361985923645835       0.017213890692981
5        115.801075167769        114.749724850164              108.656854     0.00991806619789584     0.00878877004896404      0.0139051719355426
6        114.374826990867        114.748292608712              108.656854      0.0212144197627892      0.0394534143548972       0.122324329998277
7        114.372341865028        117.223022205388              108.656854      0.0206114529695543     -0.0320528221681949       0.118381206694923
8        115.798590041422        117.224454446583              108.656854     0.00976586693989036    -0.00106761260727217      0.0131355699255743
9        113.617756920757        113.548446241175              108.656854     -0.0320324779032063     -0.0390850539829985       0.171005400169054
10        116.560553482731        113.551401403886              108.656854     -0.0438079186066508     -0.0196390404250503      0.0404986460739716
11        113.612863550773        118.421345651893              108.656854     -0.0327751158256038      0.0187163841169207       0.175523495749437
12        116.555660110655        118.424300814179              108.656854     -0.0435805209304733    0.000556915267240129      0.0426602089461598
13        112.227311260236        113.562444587898              108.656854     0.00108456420864977     -0.0166561506024285      0.0172753449965899
14        112.222448808114        118.404554762274              108.656854     0.00097234944886796    0.000428571565220096      0.0193090458929172
15        117.950968226168        113.568192293572              108.656854     -0.0333081150212168     -0.0414284123743749       0.191107483228222
16        117.946105771496         118.41030247058              108.656854     -0.0332997124960032      0.0246303596420298       0.194905990509765
17        111.526795838139         117.19431994364              108.656854      0.0175832956007302      0.0012366705045332      0.0236232464457853
18         111.52922905874        114.771279815063              108.656854      0.0180004240860792     0.00815076941449378      0.0249036792118954
19        118.646621196692        114.778427112272              108.656854      0.0291199026248159      0.0299648682996465      0.0959682462747791
20        118.644187975028         117.20146724296              108.656854      0.0284019199249473     -0.0209368192694855      0.0935910458424018
21        120.055135022624        114.824435085822              108.656854       0.116540029051584       0.110046818630082      0.0266527009413031
22        120.052791362251        117.158288229576              108.656854        0.11446640431947    -0.00732134921232039      0.0227651116807522
23        110.120625673161        114.814458829493              108.656854    0.000991531323350464       0.144862447598176      0.0874501544352369
24        110.118282013145        117.148311972274              108.656854     0.00241393636736405     -0.0389506623713895      0.0795235142959777
25        120.686726460739        115.991997078118              108.656854     -0.0622169201696699     -0.0268583777845216     -0.0326227644696447
26        109.486690574472        115.980749978664              108.656854     -0.0418659631662747     -0.0271769570358809     -0.0154893565471406
27        120.709196045824        118.185922140926              108.656854      -0.189430398887818     -0.0500013913438451       0.066962747246909
28          120.7136022867        113.798121569695              108.656854      -0.195284789579284     -0.0764414810991231      0.0563818272752747
29        109.459814750727        118.174625487296              108.656854     -0.0664697250794323     -0.0550496451468282       0.134529841298057
30         109.46422099026         113.78682491673              108.656854     -0.0621843067077314     -0.0783287772048893       0.122311400070406
31        111.699866822243        112.615454800093              108.656854     -0.0347369364570182      0.0264348942543088      0.0174562596623081
32        111.693103500599        119.350483321209              108.656854     -0.0339177283345149       0.015477000557432      0.0111344682254089
33        118.480313532952        112.622263734631              108.656854       0.060334326752911      0.0248097823030558    -0.00871737393923576
34        118.473550207142        119.357292260389              108.656854       0.058667215006226       0.016667200317364     -0.0144520252899098
35        114.062286572867         112.56896056388              108.656854      0.0131369110641247      0.0129443445392528    -0.00671770036395966
36        114.055425108682        119.401722146141              108.656854      0.0132183403604803      0.0148308975665045     -0.0104642591129735
37        116.117991924022        112.571024909739              108.656854      0.0142285065140897       0.016235301188346     0.00694464924279708
38        116.111130457531        119.403786490585              108.656854      0.0135470535226938       0.011271159375874     0.00294296355057785
39                     100                     100              105.656854       0.211974773698344       0.214045993450478      -0.975673918632974
40                     100                     100              102.828427       0.432184533492412       0.430390497869615   -0.000381067102464841
41                     100                     100                     100       0.212004567285623       0.213450102563048       0.976311374488678
42                     102                     102              105.656854      -0.344104043393079       -0.34769512224692      -0.277990182880682
43                     102                     102              102.828427     -0.0512264165639733     -0.0482700600773625    0.000687703052547385
44                     102                     102                     100      -0.344237889568923      -0.346466407944308       0.276880976181826
45                     104                     100              105.656854      0.0954291397064927       0.959945388246983      -0.808978804069295
46                     104                     100              102.828427      -0.063478725854541       0.726818615863528   -0.000206615470339425
47                     104                     100                     100      0.0959501509528225       0.959341088143521       0.809288693878336
48                     106                     102              105.656854      -0.148417609631587      -0.514504692058147      -0.381331409404105
49                     106                     102              102.828427       0.141711564843911      0.0662010260427126    0.000181112280376025
50                     106                     102                     100      -0.149809209295539      -0.513513397474796       0.381110086788158
51                     108                     100              105.656854       0.109293779421503        1.05950482404637       -0.80204000651702
52                     108                     100              102.828427      -0.111359613779138       0.640317527435962    0.000446208989895361
53                     108                     100                     100       0.110489504569379        1.05973435093906       0.801243697448716
54                     110                     102              105.656854      -0.142990335408307      -0.580555650232436      -0.373494265340474
55                     110                     102              102.828427       0.147852736944914       0.133910553275841    -0.00139602149118433
56                     110                     102                     100      -0.145516878553327      -0.582084103733186        0.37585324693877
57                     112                     100              105.656854       0.132025234860731        1.10770698708089      -0.810824598923445
58                     112                     100              102.828427      -0.135743114077729       0.589972897228529     0.00136753985659057
59                     112                     100                     100       0.133042522336234         1.1095262337426       0.808513183577834
60                     114                     102              105.656854      -0.164945275246276       -0.61792895302663      -0.361172002284591
61                     114                     102              102.828427       0.169571492772872       0.174242260694456    -0.00287882484556289
62                     114                     102                     100      -0.165809836579794      -0.622349900389551       0.365919422893337
63                     116                     100              105.656854       0.167338797239896        1.14385519875383      -0.821225376063685
64                     116                     100              102.828427      -0.171357181035421       0.552330657126767     0.00165920294452553
65                     116                     100                     100       0.166997764904903        1.14622219041825       0.818438884378891
66                     118                     102              105.656854      -0.210590944181964      -0.651682332620802      -0.348148099021908
67                     118                     102              102.828427       0.215179509493398       0.208485730608262    -0.00237252635507948
68                     118                     102                     100      -0.208584194685954      -0.655085034226394       0.352082193552035
69                     120                     100              105.656854       0.223568956492085         1.1830813317567      -0.835104465281221
70                     120                     100              102.828427      -0.228943067186324       0.512541715809705    0.000969389144699078
71                     120                     100                     100       0.222295891504299        1.18417968279329        0.83344451084771
72                     122                     102              105.656854      -0.288660654497251      -0.689113988182401      -0.330594185997415
73                     122                     102              102.828427       0.293561988184347       0.245098839999409   -0.000574502201253606
74                     122                     102                     100      -0.286445890924907      -0.689205546131436        0.33161822582451
75                     124                     100              105.656854        0.32617933337838        1.23722848076182      -0.851995901712589
76                     124                     100              102.828427      -0.322891567848577       0.459101921361423    8.87982861282846e-05
77                     124                     100                     100       0.325263441721766        1.23694522919055        0.85179855705817
78                     126                     102              105.656854      -0.461150001774191      -0.728110503082331      -0.332118394156522
79                     126                     102              102.828427       0.396849857295478       0.282055057864177     0.00052426966261564
80                     126                     102                     100      -0.460441676715671      -0.726821433225153       0.331312289127356
81                     128                     100              105.656854       0.707990536119771        1.34088831388214      -0.754709146154954
82                     128                     100              102.828427       -0.28070673367972       0.395920709782746   -0.000327850501388769
83                     128                     100                     100       0.707741565229558        1.34023113764635        0.75523814209977
84                     130                     102              105.656854       -1.34028026902637      -0.708707775699358      -0.755399838387335
85                     130                     102              102.828427      -0.396128596999528       0.281033395903929    0.000674688246914394
86                     130                     102                     100       -1.34039829541515      -0.707696702511999       0.754285155956337
87                     100                     104              105.656854       0.958861740139205       0.100411080543114      -0.808327231285852
88                     100                     104              102.828427       0.727911526724219     -0.0674551028391411    -0.00115621374284669
89                     100                     104                     100       0.958322871415152      0.0988261506124656        0.81022092151043
90                     102                     106              105.656854      -0.513313553171968      -0.157947471103145      -0.383083053266239
91                     102                     106              102.828427      0.0647149537050975       0.148598157340098     0.00242570216981241
92                     102                     106                     100      -0.512038745737595       -0.15424910418939       0.379213852714379
93                     104                     104              105.656854       0.246299194168884       0.253087540407337      -0.388478502317672
94                     104                     104              102.828427      -0.179278156324841      -0.184419252095162    -0.00129049788822424
95                     104                     104                     100       0.246863986778379       0.250373528294506        0.39049674707667
96                     106                     106              105.656854      -0.230765161577293      -0.245128086563857      -0.504673865266418
97                     106                     106              102.828427       0.223726618403454       0.233113390547479     0.00239364483286249
98                     106                     106                     100      -0.233292617086097      -0.238813129742519       0.500847293154409
99                     108                     104              105.656854       0.171675202516465       0.337234853997926      -0.375692265036802
100                     108                     104              102.828427      -0.176273345212102      -0.267794531934139    0.000314591657264984
101                     108                     104                     100       0.175632405946559       0.336142936788889       0.375068529631263
102                     110                     106              105.656854      -0.179381606388547      -0.288424114101897      -0.488118124616443
103                     110                     106              102.828427       0.191013166830429        0.28322766461603      -0.002906244660079
104                     110                     106                     100      -0.190494230252679      -0.290708154706341       0.493093278950188
105                     112                     104              105.656854       0.167512011543306       0.376624138072507      -0.391747965508892
106                     112                     104              102.828427      -0.174561380751575      -0.312872355477511     0.00398169613725927
107                     112                     104                     100        0.17204548961588       0.382624878692378       0.385177761134298
108                     114                     106              105.656854      -0.191976480934819       -0.30379939214782      -0.465459560455664
109                     114                     106              102.828427       0.199734344371068       0.309916138051911    -0.00982466380942521
110                     114                     106                     100      -0.196286976254563        -0.3215338940355       0.482307341306083
111                     116                     104              105.656854       0.200784409352264       0.404976488843036      -0.406413732041403
112                     116                     104              102.828427      -0.205126295937625      -0.343952610051163     0.00530716196796364
113                     116                     104                     100       0.199197795367995       0.413792758100228       0.397702345806566
114                     118                     106              105.656854      -0.245356951988162      -0.332792478653467      -0.452338540120258
115                     118                     106              102.828427       0.245916942502352       0.335977605850762     -0.0073646830373831
116                     118                     106                     100      -0.235495801369704      -0.344987170448388        0.46499195010706
117                     120                     104              105.656854       0.261451824556825        0.43815563903966      -0.420910500924797
118                     120                     104              102.828427      -0.265663213338996      -0.374165681821707     0.00227019992923172
119                     120                     104                     100       0.256251569686525       0.440635915072273       0.417114606945666
120                     122                     106              105.656854      -0.317104974524313      -0.366519279695349      -0.439690664992448
121                     122                     106              102.828427       0.319444420270361        0.35963778899901    0.000306843998379666
122                     122                     106                     100       -0.30945066104769       -0.36257358231841       0.439226567742837
123                     124                     104              105.656854       0.367193154034264       0.464992188519967      -0.438219282579534
124                     124                     104              102.828427      -0.361995033408766      -0.398715539921164   -0.000732117575182118
125                     124                     104                     100       0.364963530577408       0.462483065685379       0.439299561165378
126                     126                     106              105.656854      -0.464440578684527      -0.369132631320123      -0.441532156110341
127                     126                     106              102.828427       0.399980305869886       0.361798115104127      0.0027476667941482
128                     126                     106                     100      -0.464531341529459      -0.363691197241005       0.437177132846687
129                     128                     104              105.656854       0.727316652980701       0.462307520654777      -0.330688367521237
130                     128                     104              102.828427       -0.28211228895664      -0.397135575115728    -0.00132121153587531
131                     128                     104                     100       0.727502146117191        0.46006465530907       0.332799965995038
132                     130                     106              105.656854       -1.23621671849576      -0.327773190378727      -0.853408628360271
133                     130                     106              102.828427      -0.459177555044328       0.323636543784519     0.00193756223925451
134                     130                     106                     100       -1.23757659541845      -0.325315923506408       0.850271475443384
135                     100                     108              105.656854        1.06320405144167       0.117659541271527      -0.799493112436392
136                     100                     108              102.828427       0.638326276169081      -0.117491922950584    -0.00295508003916997
137                     100                     108                     100        1.06039255084639       0.114487620022632       0.804254151618047
138                     102                     110              105.656854      -0.590788612720692      -0.157874037872115      -0.380662635430074
139                     102                     110              102.828427       0.138405879784239       0.157293523870718     0.00657445592893784
140                     102                     110                     100      -0.583226171723737      -0.150823684621454       0.370017148112282
141                     104                     108              105.656854        0.33707212965863       0.191763413947279      -0.370000531631252
142                     104                     108              102.828427      -0.265781305427325      -0.188437225354533    -0.00546725762265809
143                     104                     108                     100       0.333875016752271       0.182253589878109       0.378959773773708
144                     106                     110              105.656854       -0.29366459435873      -0.224924020558327       -0.51127719520852
145                     106                     110              102.828427       0.279706312696736       0.211041745172962      0.0123978006584875
146                     106                     110                     100      -0.286827681520699       -0.19919012253546       0.485654906251892
147                     108                     108              105.656854       0.214537973513487       0.249133478853441      -0.359775802562005
148                     108                     108              102.828427      -0.225638667358918      -0.242809802447873     -0.0033972283223419
149                     108                     108                     100       0.226804718399936       0.234997266990477       0.366960857694458
150                     110                     110              105.656854      -0.161316561047794      -0.236989708800621      -0.472037146114747
151                     110                     110              102.828427       0.212084345525721       0.238741357673925    -0.00188550462101643
152                     110                     110                     100        -0.2209326845011      -0.231112872853491       0.478067721405672
153                     112                     108              105.656854       0.178473926692814       0.245377378255249      -0.399790156224087
154                     112                     108              102.828427      -0.199545796923708      -0.265352425668814      0.0123459505610647
155                     112                     108                     100       0.202040309874252       0.265941814802897       0.376055916381251
156                     114                     110              105.656854      -0.196787237777828      -0.175746600813669      -0.376678372074791
157                     114                     110              102.828427       0.216056285502341       0.243676419788838     -0.0312632253288114
158                     114                     110                     100      -0.216151649686022      -0.248442301255523       0.471684438281805
159                     116                     108              105.656854       0.230572724540269       0.251197198945307      -0.425009355522547
160                     116                     108              102.828427      -0.231348677992406      -0.282177087394111       0.018742986686208
161                     116                     108                     100        0.22255560689288       0.286120965406385       0.389014475737264
162                     118                     110              105.656854      -0.303714673856956       -0.21043707233156      -0.381343745692052
163                     118                     110              102.828427       0.272630387293668        0.26137168302627     -0.0209516009291424
164                     118                     110                     100       -0.25185871566301      -0.261261399458352       0.450403320519589
165                     120                     108              105.656854       0.299695216465115       0.301083173719816      -0.421959377534425
166                     120                     108              102.828427      -0.290866093432181      -0.307702004430896     0.00425890407404854
167                     120                     108                     100       0.274519557043503       0.302112105800222       0.414632029813071
168                     122                     110              105.656854      -0.336063560321193      -0.300511968495728      -0.443242696576126
169                     122                     110              102.828427       0.329276737273315       0.280789931603287     0.00950388828227284
170                     122                     110                     100      -0.314117289427408      -0.267155201244012       0.416508410916233
171                     124                     108              105.656854       0.369763166763413       0.320418121383756      -0.430968668577836
172                     124                     108              102.828427      -0.365611555248848      -0.317027695395995    -0.00575610712670845
173                     124                     108                     100       0.367966634405975       0.306035727340366       0.441269809801349
174                     126                     110              105.656854      -0.435473263498613      -0.270091751746165      -0.431395003718488
175                     126                     110              102.828427       0.378123689377154       0.267261826619426     0.00996125616196506
176                     126                     110                     100      -0.445608380780586      -0.255361749541212       0.413963555369178
177                     128                     108              105.656854       0.687519981961639       0.292093854504533      -0.327150705805791
178                     128                     108              102.828427      -0.245845634386956      -0.294712541884145    -0.00427377047750524
179                     128                     108                     100       0.691093194509919       0.286231640221869       0.333994214689837
180                     130                     110              105.656854       -1.18013745621268      -0.226520621933701      -0.838079793575619
181                     130                     110              102.828427      -0.512996594442651       0.230407138577277     0.00441636359631113
182                     130                     110                     100       -1.18524947452142      -0.222689661375411       0.830990647343907
183                     100                     112              105.656854        1.11993954401414       0.139263278688713      -0.805222781427748
184                     100                     112              102.828427       0.582987201231846      -0.140708952629403    -0.00558647374532186
185                     100                     112                     100        1.11262019910741        0.13603636947602       0.814191612938303
186                     102                     114              105.656854      -0.642583143634017      -0.171685745012635      -0.374900464045799
187                     102                     114              102.828427       0.185431409929592       0.173564185313956      0.0111707051188438
188                     102                     114                     100      -0.626084879143523      -0.167862712805336         0.3564231311514
189                     104                     112              105.656854        0.40477284592116         0.1919092196993      -0.368364057608806
190                     104                     112              102.828427      -0.321005289481274      -0.186788690394363     -0.0147073017858431
191                     104                     112                     100       0.383667610002044       0.177755868893579       0.395734563062642
192                     106                     114              105.656854      -0.353901675605348       -0.20831528683983      -0.537170611357052
193                     106                     114              102.828427        0.31661576451711       0.208006347668769       0.027255062930429
194                     106                     114                     100      -0.320093864466799      -0.199602356562272       0.466641373297775
195                     108                     112              105.656854       0.255351159088948       0.269407505062655      -0.282958345643566
196                     108                     112              102.828427      -0.253659714531159      -0.221961527805155     -0.0195016000588064
197                     108                     112                     100       0.258973815815043       0.210318736802555       0.387337828263512
198                     110                     114              105.656854     -0.0698774778152524      -0.202383960222942      -0.750070157711301
199                     110                     114              102.828427       0.216840684448744       0.223618339824203     0.00197415546555662
200                     110                     114                     100      -0.238288180505893      -0.219426242180087       0.461074570149248
201                     112                     112              105.656854       0.128265027402661       0.207052385670399      -0.484091735396369