ITEM: TIMESTEP
0
ITEM: NUMBER OF ATOMS
422
ITEM: BOX BOUNDS ff ff ff
0.0000000000000000e+00 2.3200000000000000e+02
0.0000000000000000e+00 2.3200000000000000e+02
0.0000000000000000e+00 2.3200000000000000e+02
ITEM: ATOMS id xu yu zu fx fy fz
1        113.145932193839        115.983520815677              109.656854     0.00281311718046531    -0.00127468048896926     -0.0147732698584945
2        118.827484840071        115.989226241634              109.656854    -0.00545487195439971    -0.00124485740867891     -0.0144085579263411
3        117.402344993917        115.987795112765              109.656854     0.00330678352219002     0.00276084488015664     -0.0146789588326787
4        114.571072038949        115.984951942936              109.656854     0.00233703264574742     0.00280584613347257     -0.0143205182695551
5        116.701075167769        114.749724850164              109.656854     0.00363472620178365     0.00424191601868667     -0.0138873662493002
6        115.274826990867        114.748292608712              109.656854     0.00377232575360567     0.00426620404247371     -0.0136143963851093
7        115.272341865028        117.223022205388              109.656854      0.0037267654522812     0.00317072736017422     -0.0140398832259101
8        116.698590041422        117.224454446583              109.656854     0.00357796501033512     0.00313495397009032      -0.014313095640142
9        114.517756920757        113.548446241175              109.656854    -0.00249742481737793    -0.00746196662803004    -0.00963012415530361
10        117.460553482731        113.551401403886              109.656854     -0.0151231014236028      -0.007491163261184    -0.00853618414741747
11        114.512863550773        118.421345651893              109.656854    -0.00243203894704991     -0.0104012134192849    -0.00752272225212983
12        117.455660110655        118.424300814179              109.656854     -0.0147104818668499     -0.0100858286234106    -0.00652879401124113
13        113.127311260236        113.562444587898              109.656854      0.0123950402057487    -0.00854566295136208     -0.0119193783642062
14        113.122448808114        118.404554762274              109.656854      0.0122870237114821    -0.00654980784451198     -0.0101906609533222
15        118.850968226168        113.568192293572              109.656854     -0.0276126794790576    -0.00864068766637963    -0.00979721072399696
16        118.846105771496         118.41030247058              109.656854     -0.0271021607861381    -0.00602972473851428       -0.00810766008331
17        112.426795838139         117.19431994364              109.656854     0.00402284851739112     0.00829020883646873     -0.0137882571486064
18         112.42922905874        114.771279815063              109.656854     0.00396795906345003    0.000812598778617474     -0.0132986181270871
19        119.546621196692        114.778427112272              109.656854     0.00550025320662034    0.000747832221453351     -0.0148320724374454
20        119.544187975028         117.20146724296              109.656854     0.00530892239745944     0.00798072393415758     -0.0153012846613567
21        120.955135022624        114.824435085822              109.656854       0.122013466281433       0.132674820619276     -0.0307251358888912
22        120.952791362251        117.158288229576              109.656854        0.11977135149486     -0.0362089583050936     -0.0355577574178431
23        111.020625673161        114.814458829493              109.656854     -0.0100359176586808       0.133811201906615    -0.00504642426304967
24        111.018282013145        117.148311972274              109.656854     -0.0088279003702861     -0.0316309961147398     -0.0100626908179851
25        121.586726460739        115.991997078118              109.656854     -0.0431724812899058     -0.0254986556261968     0.00100777182303019
26        110.386690574472        115.980749978664              109.656854     -0.0188202878424238     -0.0271853354419159      -0.015222311558676
27        121.609196045824        118.185922140926              109.656854      -0.135499976707036      -0.058967453966641       0.041819062031439
28          121.6136022867        113.798121569695              109.656854      -0.141587072658276     -0.0585968849403458      0.0302107359586198
29        110.359814750727        118.174625487296              109.656854    -0.00201620992794411      -0.067655241266002     0.00582866497848817
30         110.36422099026         113.78682491673              109.656854    0.000967360104491543     -0.0582120839183588     -0.0069151954275676
31        112.599866822243        112.615454800093              109.656854     -0.0262956714164903      0.0158392949114334     0.00251395388608413
32        112.593103500599        119.350483321209              109.656854     -0.0257856322599409      0.0246434154583747    -0.00388919873221903
33        119.380313532952        112.622263734631              109.656854      0.0669538544290433      0.0164885191357811    -0.00394442514879159
34        119.373550207142        119.357292260389              109.656854      0.0648433082703419      0.0226876748799998     -0.0100832146638912
35        114.962286572867         112.56896056388              109.656854      0.0112419093185375      0.0093042340863841    -0.00290332618494411
36        114.955425108682        119.401722146141              109.656854      0.0109951956775434      0.0172336742796435    -0.00717582249170323
37        117.017991924022        112.571024909739              109.656854      0.0143565669292203     0.00941581906681742    -0.00403539308733952
38        117.011130457531        119.403786490585              109.656854      0.0135840179806299      0.0168253149842899    -0.00819813778173485
39                     100                     100              105.656854       0.212158445685921       0.213932316745052      -0.975618224111188
40                     100                     100              102.828427       0.432019801746556       0.430505841604493    -0.00039799312405166
41                     100                     100                     100       0.212148465158969       0.213363193056286       0.976305721757329
42                     102                     102              105.656854      -0.344471248079046      -0.347463397981378      -0.278087770327082
43                     102                     102              102.828427     -0.0509061926207902     -0.0484810007978704    0.000701687032046371
44                     102                     102                     100      -0.344504663063739      -0.346332764562617       0.276899271628679
45                     104                     100              105.656854      0.0957880975038405       0.960028541551392      -0.808893683142106
46                     104                     100              102.828427     -0.0637980422230818        0.72677396056079   -0.000275331609429723
47                     104                     100                     100      0.0962063380049654       0.959379458620913       0.809345005973143
48                     106                     102              105.656854      -0.149157583560037      -0.514784043479016      -0.381513216073709
49                     106                     102              102.828427       0.142331924861154      0.0663795892168488    0.000341719708409645
50                     106                     102                     100      -0.150260721332668       -0.51365337885892       0.380969394474672
51                     108                     100              105.656854       0.109608577682114        1.06007137611757      -0.801953435612325
52                     108                     100              102.828427      -0.111662365289897       0.639882078468446    0.000290840837783333
53                     108                     100                     100       0.110724458718238        1.06004204158761       0.801413705694514
54                     110                     102              105.656854      -0.143354345045555      -0.581917342123101       -0.37366916522349
55                     110                     102              102.828427       0.148228490325663       0.134894556594183    -0.00102176169886412
56                     110                     102                     100      -0.145783689092805      -0.582705229563399       0.375471748168808
57                     112                     100              105.656854        0.13177265807166        1.10855091548131      -0.810873287328768
58                     112                     100              102.828427      -0.135612819508291       0.589259437915922     0.00122681115725471
59                     112                     100                     100       0.132973008525426        1.11002803646073       0.808724680564656
60                     114                     102              105.656854      -0.163973043010133      -0.619270566362699       -0.36094869150596
61                     114                     102              102.828427       0.168948540087599       0.175374516702535    -0.00266216709096555
62                     114                     102                     100      -0.165431013461835      -0.623082751501603       0.365576015571338
63                     116                     100              105.656854       0.166588813819601        1.14414920370943      -0.821508066874609
64                     116                     100              102.828427      -0.170771948064788        0.55194621309316     0.00173247516997119
65                     116                     100                     100       0.166587472184671        1.14654271065215       0.818494390150162
66                     118                     102              105.656854      -0.209325536613055      -0.651469617968574      -0.347516684391352
67                     118                     102              102.828427       0.214141180724529       0.208620462928077    -0.00265976057124617
68                     118                     102                     100      -0.207862980545153      -0.655275146556202       0.352139771597704
69                     120                     100              105.656854       0.223106746535183        1.18263429628795      -0.835440901460547
70                     120                     100              102.828427      -0.228475587992996       0.512752069929339     0.00122584365552722
71                     120                     100                     100       0.221907411319664        1.18410827619304       0.833293964483378
72                     122                     102              105.656854      -0.288499098497801      -0.688088075221843      -0.330140377023575
73                     122                     102              102.828427       0.293206439229935       0.244459109694146    -0.00102068898028248
74                     122                     102                     100       -0.28607711345178      -0.688872052688262       0.331941082594458
75                     124                     100              105.656854       0.326268992936838        1.23671403147493      -0.852151765287051
76                     124                     100              102.828427      -0.322852138722905       0.459497884496515    0.000292076379934492
77                     124                     100                     100       0.325156962231213        1.23668602868203       0.851609962947506
78                     126                     102              105.656854      -0.461603104897569      -0.727581961839086      -0.332081005223953
79                     126                     102              102.828427       0.397081790541502       0.281555988711482    0.000337205862297863
80                     126                     102                     100      -0.460505276992388      -0.726458844998723       0.331544866984199
81                     128                     100              105.656854       0.708242064583996        1.34067460402355      -0.754694315563399
82                     128                     100              102.828427      -0.280872412544862       0.396155158390055   -0.000271998322496205
83                     128                     100                     100       0.707825186386267        1.34003029201523         0.7551399860788
84                     130                     102              105.656854       -1.34061437936957      -0.708635942683952      -0.755527783296708
85                     130                     102              102.828427       -0.39585557867867       0.280862287913866    0.000695774907087511
86                     130                     102                     100       -1.34058003840519      -0.707513461702153       0.754349296435632
87                     100                     104              105.656854       0.959015174193053      0.0998861527761102      -0.808250951970688
88                     100                     104              102.828427       0.727761561553215     -0.0670171675688013    -0.00108052195317869
89                     100                     104                     100       0.958486602774497      0.0985406947274966       0.810098844846883
90                     102                     106              105.656854      -0.513545893142634      -0.156668477029853      -0.383129000645783
91                     102                     106              102.828427      0.0650070930696453       0.147697784419192     0.00212853813578853
92                     102                     106                     100      -0.512377220384638      -0.153773900583223       0.379507286260631
93                     104                     104              105.656854       0.247129298292899       0.252570597673297      -0.388302157333686
94                     104                     104              102.828427      -0.179964412201662      -0.184029852630598    -0.00128151131622755
95                     104                     104                     100       0.247387662389423         0.2501893731146       0.390463216202562
96                     106                     106              105.656854      -0.233009813939795      -0.243891446257223      -0.505001035412942
97                     106                     106              102.828427       0.225367277676111       0.232460887906516     0.00233499410433402
98                     106                     106                     100      -0.234354674826063      -0.238650201001567       0.500834982673254
99                     108                     104              105.656854        0.17329340702086        0.33825983441318      -0.375217486571422
100                     108                     104              102.828427      -0.177496580341216      -0.268434574005714     -0.0001507023214351
101                     108                     104                     100       0.176397226105744       0.336560034811518       0.375460936293969
102                     110                     106              105.656854      -0.182736740333613      -0.292546706027582      -0.489766888712827
103                     110                     106              102.828427       0.193166369982476       0.285310545427229    -0.00133370484092886
104                     110                     106                     100      -0.191577405273936      -0.291751801585001       0.491995125289061
105                     112                     104              105.656854       0.167341592781127        0.37983404914749      -0.391405640823565
106                     112                     104              102.828427      -0.174660515912614      -0.314971478587078     0.00306981699380976
107                     112                     104                     100       0.172122930352522       0.383759085415106       0.385992314713097
108                     114                     106              105.656854      -0.189038485671937      -0.310449315101335      -0.465953157750214
109                     114                     106              102.828427       0.198317189505953       0.313609173331814    -0.00788171000223479
110                     114                     106                     100       -0.19557403624096       -0.32319891087048       0.480847008561031
111                     116                     104              105.656854       0.198199450407843        0.40646797123456      -0.407205118654525
112                     116                     104              102.828427      -0.203402874646629      -0.345310414581377     0.00513807456444627
113                     116                     104                     100       0.198189202842556       0.414606086250999         0.3981065957599
114                     118                     106              105.656854      -0.240199934440599      -0.332689240401524       -0.45006806262082
115                     118                     106              102.828427       0.242512816284672       0.336518546375222    -0.00786553596149837
116                     118                     106                     100      -0.233631010963116      -0.345394015190573       0.464927920080431
117                     120                     104              105.656854       0.260072824760113       0.436508478800011      -0.422123687223913
118                     120                     104              102.828427      -0.264333756532909      -0.373480099525201     0.00306194335832937
119                     120                     104                     100       0.255296589946347       0.440412165795635       0.416724794715499
120                     122                     106              105.656854      -0.317492000162682      -0.362539650361758      -0.437997733486114
121                     122                     106              102.828427       0.318774973256263       0.357571081868063    -0.00132480740851781
122                     122                     106                     100      -0.308698014134922      -0.361723226109189       0.440210921431454
123                     124                     104              105.656854       0.367939673582822       0.463560662428646      -0.438542799751008
124                     124                     104              102.828427      -0.362170647538059      -0.397643474487599   -0.000147248953764171
125                     124                     104                     100        0.36485358922157       0.461867862229008        0.43877957868013
126                     126                     106              105.656854       -0.46622015167657      -0.368179333309478      -0.441904965672414
127                     126                     106              102.828427       0.400969897886742       0.360697742758965     0.00231809763621591
128                     126                     106                     100      -0.464888923995363       -0.36297330101036       0.437772531597223
129                     128                     104              105.656854       0.728040506918176       0.462061718168139      -0.330451848239191
130                     128                     104              102.828427      -0.282632284288546      -0.396714333713006    -0.00127105262892867
131                     128                     104                     100       0.727783066087409       0.459697645457062       0.332594876328028
132                     130                     106              105.656854       -1.23684731155638      -0.327922897439021       -0.85395916772697
133                     130                     106              102.828427      -0.458553460819884       0.323435608134765     0.00211213881150562
134                     130                     106                     100       -1.23800599970874      -0.325050295664336       0.850365757327162
135                     100                     108              105.656854         1.0626268549598       0.116318042722942      -0.799552824530727
136                     100                     108              102.828427       0.638612013523177      -0.116524838310933      -0.002477076863628
137                     100                     108                     100        1.06039885657192       0.113940063543429       0.803777412869154
138                     102                     110              105.656854      -0.588641555579157      -0.154735909069719       -0.37984312743481
139                     102                     110              102.828427       0.137710209879365       0.155501604528891     0.00501735848059786
140                     102                     110                     100      -0.583362152086348      -0.150032192235329       0.371085345243108
141                     104                     108              105.656854       0.337318017289497       0.188128667628134      -0.370483997768339
142                     104                     108              102.828427      -0.266501795311335      -0.186565709777749    -0.00439128485903249
143                     104                     108                     100       0.334658389469109       0.181543729377392        0.37831764926568
144                     106                     110              105.656854      -0.294009037384636      -0.213287208883505      -0.506158090022807
145                     106                     110              102.828427       0.282185962104662        0.20768245559304     0.00890889546676429
146                     106                     110                     100      -0.288721052510845      -0.198446013245229       0.486696696430797
147                     108                     108              105.656854       0.222205586551412       0.246430098882574      -0.358962939807359
148                     108                     108              102.828427      -0.229842096549762      -0.242291470913185    -0.00365153560366916
149                     108                     108                     100       0.228849598755357       0.235168552312716       0.367417612585493
150                     110                     110              105.656854      -0.192440619829841      -0.246308112509351      -0.486455953378638
151                     110                     110              102.828427       0.220957109157633       0.240632893690606     0.00192687726740984
152                     110                     110                     100       -0.22397390545996      -0.232192388349675       0.475831820266813
153                     112                     108              105.656854       0.181750968847207       0.259581071453009      -0.393382548207964
154                     112                     108              102.828427      -0.201646314472906      -0.270705979348339     0.00726505881213493
155                     112                     108                     100       0.202833508143258       0.267916141262574       0.378673136136688
156                     114                     110              105.656854      -0.188432286720301      -0.214521427887714       -0.40440625721296
157                     114                     110              102.828427       0.213510205460722       0.251134307120677     -0.0207685192021072
158                     114                     110                     100      -0.215051518973025      -0.250830289226962       0.467266207602287
159                     116                     108              105.656854       0.220250059524681       0.261105800738109      -0.424755517747988
160                     116                     108              102.828427      -0.226105650866745      -0.286544028461173      0.0157740461802577
161                     116                     108                     100       0.220184512755599       0.287724549184242       0.390778875114526
162                     118                     110              105.656854      -0.274480687476326      -0.225675164714167      -0.387298040726921
163                     118                     110              102.828427       0.261891392609021       0.262468356466382     -0.0206924930368206
164                     118                     110                     100      -0.247636958736259      -0.261795503086675       0.449895530383362
165                     120                     108              105.656854       0.293267783435853        0.29329937039203      -0.428087870821166
166                     120                     108              102.828427       -0.28655582375156      -0.305381509719219     0.00721721665599033
167                     120                     108                     100       0.272222177795426       0.301504351343699       0.413493414059425
168                     122                     110              105.656854      -0.343997752849426      -0.279936154978658      -0.430117334187559
169                     122                     110              102.828427        0.32866038895236       0.275209614622251      0.0019762904325177
170                     122                     110                     100      -0.312789706653909      -0.265681200946885       0.419397123345095
171                     124                     108              105.656854       0.374638211954473       0.316008358389866      -0.431351908115911
172                     124                     108              102.828427       -0.36711194927824      -0.314188206474348    -0.00363741052573262
173                     124                     108                     100       0.368075088789618       0.304798826849045       0.439748702565577
174                     126                     110              105.656854       -0.44143200194738       -0.26909731463217      -0.434679013422983
175                     126                     110              102.828427       0.381447106359958       0.265401135146662     0.00885412602942861
176                     126                     110                     100      -0.446713015600204       -0.25435737411689       0.415391037238896
177                     128                     108              105.656854        0.68920555980379        0.29221336630291      -0.325795026465064
178                     128                     108              102.828427      -0.247269442172787      -0.294081272300707    -0.00435854287571595
179                     128                     108                     100       0.691846448271723       0.285679529653252       0.333563881227365
180                     130                     110              105.656854       -1.18084563784228      -0.227078000496564      -0.839805765565239
181                     130                     110              102.828427      -0.511821227488293       0.230250148897982     0.00497986828547332
182                     130                     110                     100       -1.18608193009354      -0.222408585401809       0.831117842435755
183                     100                     112              105.656854        1.11741817722362       0.137752481197098      -0.805746149086173
184                     100                     112              102.828427       0.584302972312406      -0.139712621932713    -0.00431663802481303
185                     100                     112                     100          1.112258722802       0.135520385242203        0.81314628564767
186                     102                     114              105.656854      -0.636317262244321      -0.169925691798094      -0.372509363763909
187                     102                     114              102.828427       0.183196391416297       0.172587671057686     0.00792120454160401
188                     102                     114                     100      -0.625874377372261      -0.167449286798996       0.358365455320298
189                     104                     112              105.656854       0.396632834663663       0.185082980323772      -0.374034911179017
190                     104                     112              102.828427      -0.320044635087886      -0.184158945632513      -0.010031481489517
191                     104                     112                     100       0.384430655698283       0.176910389587603       0.393699268536077
192                     106                     114              105.656854      -0.341490320357221      -0.206371527295186      -0.512544234532769
193                     106                     114              102.828427       0.318923142552835       0.206512415570907      0.0172043007038623
194                     106                     114                     100      -0.322654244151857      -0.199210118823469       0.469149406520322
195                     108                     112              105.656854       0.263936523500836       0.234964580394816       -0.33220891649021
196                     108                     112              102.828427      -0.263386030536655       -0.21989230803618     -0.0139923826191812
197                     108                     112                     100       0.262880390502037       0.210202559447729       0.387013737035915
198                     110                     114              105.656854      -0.167165592664275      -0.206733107240174      -0.495036037752068
199                     110                     114              102.828427        0.23439762885933       0.226217187977559     0.00732557081221011
200                     110                     114                     100      -0.243348610301741        -0.2200388657622        0.45775191266314
201                     112                     112              105.656854       0.149084669659414       0.225664872430559      -0.420209358467488