ITEM: TIMESTEP
0
ITEM: NUMBER OF ATOMS
422
ITEM: BOX BOUNDS pp pp pp
0.0000000000000000e+00 3.2000000000000000e+01
0.0000000000000000e+00 3.2000000000000000e+01
0.0000000000000000e+00 3.2000000000000000e+01
ITEM: ATOMS id xu yu zu fx fy fz
1        13.1459321938386        15.9835208156773                11.45685    2.46859779679254e-05   -7.33856595505622e-07    -0.00203698928552405
2        18.8274848400711        15.9892262416344                11.45685    -2.4423137341352e-05   -5.45228465065779e-07    -0.00203817065791446
3         17.402344993917         15.987795112765                11.45685    2.05434143105143e-05   -5.43799343166729e-07    -0.00204765339756158
4         14.571072038949        15.9849519429358                11.45685   -1.98710893694054e-05    -6.5438157130504e-07    -0.00204862985598395
5        16.7010751677692        14.7497248501637                11.45685    2.51090042148183e-05   -2.44347035987802e-05     -0.0020594819154299
6        15.2748269908674        14.7482926087119                11.45685   -2.55370610233174e-05   -2.44907676106854e-05    -0.00206066030214823
7        15.2723418650276        17.2230222053877                11.45685   -2.55302248254874e-05    2.49053517754338e-05    -0.00205948559997328
8        16.6985900414216        17.2244544465825                11.45685    2.49792466362753e-05    2.48316490758654e-05    -0.00205820932848566
9        14.5177569207574        13.5484462411751                11.45685   -2.09566967068822e-05    1.87310774665689e-05    -0.00210928310605533
10        17.4605534827313        13.5514014038861                11.45685    2.16819324668216e-05    1.85735874464882e-05    -0.00210853993281916
11        14.5128635507729         18.421345651893                11.45685   -2.09021275179196e-05   -1.76543166741879e-05    -0.00211047237682412
12        17.4556601106552        18.4243008141789                11.45685    2.18294564317904e-05   -1.77121714475208e-05    -0.00210915032004147
13        13.1273112602358        13.5624445878976                11.45685    2.82489737829517e-05    1.75952050491535e-05    -0.00209334243847589
14        13.1224488081137        18.4045547622743                11.45685    2.83166171443804e-05   -1.64756446248717e-05    -0.00209411544127515
15         18.850968226168        13.5681922935721                11.45685   -2.80239893224786e-05    1.74747007116011e-05    -0.00209464627670579
16        18.8461057714963        18.4103024705805                11.45685   -2.80176180237202e-05   -1.67672505177179e-05    -0.00209556613791175
17         12.426795838139        17.1943199436399                11.45685    1.73211581806811e-05    2.46333058832593e-05    -0.00204617642919788
18        12.4292290587396        14.7712798150634                11.45685    1.74639237239364e-05    -2.4203245637372e-05    -0.00204778010966113
19        19.5466211966922        14.7784271122721                11.45685   -1.82745427178108e-05   -2.42039310349305e-05    -0.00204825578232765
20        19.5441879750283        17.2014672429596                11.45685   -1.82919333608418e-05    2.46890887010982e-05    -0.00204744438577545
21        20.9551350226241        14.8244350858224                11.45685    2.79662300268452e-05    -2.6463549083763e-05    -0.00206848234675777
22        20.9527913622507        17.1582882295758                11.45685     2.7842116528755e-05    2.61233659707294e-05    -0.00206753533327955
23        11.0206256731611        14.8144588294926                11.45685   -2.80409891118693e-05    -2.6100475403368e-05    -0.00207019236431875
24        11.0182820131454        17.1483119722736                11.45685   -2.79373928453865e-05    2.66054548664943e-05    -0.00206852185460401
25        21.5867264607395        15.9919970781177                11.45685    9.26745406247192e-06   -2.84418891821264e-08    -0.00120005402708835
26        10.3866905744716        15.9807499786644                11.45685   -8.76428825919645e-06   -5.38777090523318e-07    -0.00120050064770331
27         21.609196045824        18.1859221409264                11.45685    1.03779619528958e-05   -4.97913868614492e-06    -0.00124164987053414
28        21.6136022867001        13.7981215696947                11.45685    1.01578453787756e-05    5.56812101156848e-06    -0.00124157612979178
29        10.3598147507275        18.1746254872963                11.45685   -9.62919202128964e-06   -4.75234435898754e-06    -0.00124233025150689
30        10.3642209902605        13.7868249167297                11.45685   -9.75703611226069e-06    5.76841294383616e-06    -0.00124186822955444
31        12.5998668222426        12.6154548000933                11.45685     7.1127794462611e-06    7.26320586460355e-06   -0.000643470737308678
32        12.5931035005993        19.3504833212092                11.45685    7.06740270027884e-06   -7.52451919570103e-06   -0.000643858528686133
33        19.3803135329519        12.6222637346313                11.45685   -7.24561137788398e-06    7.33849985543675e-06   -0.000643838729998123
34        19.3735502071424         19.357292260389                11.45685    -7.3393309147876e-06   -7.52078863137132e-06   -0.000644222703731285
35        14.9622865728669        12.5689605638796                11.45685   -8.76303499308673e-06    7.27949308904074e-06   -0.000649743548473066
36         14.955425108682        19.4017221461408                11.45685   -8.81231711038273e-06   -7.53294763242574e-06    -0.00065027742077724
37        17.0179919240215        12.5710249097393                11.45685    8.80548332338194e-06    7.26844416745753e-06   -0.000649442486519816
38         17.011130457531        19.4037864905846                11.45685    8.80892370493734e-06   -7.48545075918766e-06   -0.000649685857507377
39                       0                       0                5.656854                       0                       0                       0
40                       0                       0                2.828427                       0                       0                       0
41                       0                       0                       0                       0                       0                       0
42                       2                       2                5.656854                       0                       0                       0
43                       2                       2                2.828427                       0                       0                       0
44                       2                       2                       0                       0                       0                       0
45                       4                       0                5.656854                       0                       0                       0
46                       4                       0                2.828427                       0                       0                       0
47                       4                       0                       0                       0                       0                       0
48                       6                       2                5.656854    3.56954213186704e-09    7.50251073319645e-09    3.75672795860316e-09
49                       6                       2                2.828427                       0                       0                       0
50                       6                       2                       0                       0                       0                       0
51                       8                       0                5.656854    7.02576403371148e-11    3.86743578377456e-12    8.86520046797579e-11
52                       8                       0                2.828427                       0                       0                       0
53                       8                       0                       0                       0                       0                       0
54                      10                       2                5.656854    1.62113137480055e-08    6.29010687595459e-08    3.21162533862444e-08
55                      10                       2                2.828427     1.7537311365569e-10    7.54369352690701e-10     5.8394827018442e-10
56                      10                       2                       0                       0                       0                       0
57                      12                       0                5.656854    3.05330087821817e-10    4.25138620382413e-11    9.27231225944258e-10
58                      12                       0                2.828427                       0                       0                       0
59                      12                       0                       0                       0                       0                       0
60                      14                       2                5.656854    9.51911027093453e-09    1.48243474384812e-07    7.67325619170197e-08
61                      14                       2                2.828427    1.44849703904946e-10    1.97857114726239e-09    1.54545098353507e-09
62                      14                       2                       0                       0                       0                       0
63                      16                       0                5.656854   -1.73934276147991e-12    5.26652461876788e-11    1.29451181292096e-09
64                      16                       0                2.828427                       0                       0                       0
65                      16                       0                       0                       0                       0                       0
66                      18                       2                5.656854   -9.75713291308602e-09    1.47476320797315e-07     7.6318648381035e-08
67                      18                       2                2.828427    -1.4797185743612e-10    1.96953885646643e-09    1.53807452774366e-09
68                      18                       2                       0                       0                       0                       0
69                      20                       0                5.656854    -3.0706589953072e-10    3.31405900528647e-11    9.22053569881691e-10
70                      20                       0                2.828427                       0                       0                       0
71                      20                       0                       0                       0                       0                       0
72                      22                       2                5.656854   -1.60807196962956e-08    6.19453246899612e-08    3.16121227461301e-08
73                      22                       2                2.828427   -1.74351861669112e-10     7.4416807962697e-10    5.75713949021951e-10
74                      22                       2                       0                       0                       0                       0
75                      24                       0                5.656854   -6.97336130088879e-11    2.79865392428068e-12    8.74871946146827e-11
76                      24                       0                2.828427                       0                       0                       0
77                      24                       0                       0                       0                       0                       0
78                      26                       2                5.656854   -3.49642199497291e-09     7.3230372895034e-09    3.66425570885551e-09
79                      26                       2                2.828427                       0                       0                       0
80                      26                       2                       0                       0                       0                       0
81                      28                       0                5.656854                       0                       0                       0
82                      28                       0                2.828427                       0                       0                       0
83                      28                       0                       0                       0                       0                       0
84                      30                       2                5.656854                       0                       0                       0
85                      30                       2                2.828427                       0                       0                       0
86                      30                       2                       0                       0                       0                       0
87                       0                       4                5.656854                       0                       0                       0
88                       0                       4                2.828427                       0                       0                       0
89                       0                       4                       0                       0                       0                       0
90                       2                       6                5.656854    2.15367053683241e-08    1.95243567138567e-08     1.4052446434084e-08
91                       2                       6                2.828427    1.95793779353022e-10     1.8227780941968e-10    2.01978349327894e-10
92                       2                       6                       0                       0                       0                       0
93                       4                       4                5.656854    2.43023758065297e-09    3.35845389280584e-09    1.96952072822401e-09
94                       4                       4                2.828427    8.59552777391673e-10    1.19316845507567e-09    1.08076329605454e-09
95                       4                       4                       0                       0                       0                       0
96                       6                       6                5.656854    5.29169034907538e-07    7.72539589051845e-07    5.65692329445034e-07
97                       6                       6                2.828427    6.41232801982914e-09     9.2674688839685e-09    1.00723906306128e-08
98                       6                       6                       0    6.48249774056662e-10    9.78289884506368e-10    1.49893368922503e-09
99                       8                       4                5.656854    2.37264456415533e-08    5.52021522825528e-08    3.32298544813728e-08
100                       8                       4                2.828427    1.03961248354557e-08    2.44903264564353e-08    2.18998095431006e-08
101                       8                       4                       0                       0                       0                       0
102                      10                       6                5.656854    2.61575075788997e-06    7.66687683943075e-06    5.86451353616406e-06
103                      10                       6                2.828427    2.48469657555879e-08    7.12427732296046e-08    7.97572821992868e-08
104                      10                       6                       0    3.88180934757815e-09    1.14293717430563e-08    1.72122681257195e-08
105                      12                       4                5.656854    4.23517108141913e-08    2.46856248354343e-07    1.52868826148022e-07
106                      12                       4                2.828427    1.72345338330918e-08    9.77320792617344e-08    8.92233834966972e-08
107                      12                       4                       0     4.7481387030979e-11    3.12785774258515e-10    3.98023505899865e-10
108                      14                       6                5.656854     1.4448813285948e-06    1.92713252020531e-05    1.51975430179664e-05
109                      14                       6                2.828427    1.36142643796999e-08    1.60699289169772e-07    1.84621398169285e-07
110                      14                       6                       0    2.11606236212126e-09    2.52100778526088e-08    3.86421683200192e-08
111                      16                       4                5.656854   -3.78724183245891e-10    3.62135126814833e-07    2.26471347087179e-07
112                      16                       4                2.828427   -1.46170537527859e-10    1.38946143722368e-07    1.28227723118487e-07
113                      16                       4                       0   -6.45640010504464e-13    5.92431315025748e-10      7.541078389434e-10
114                      18                       6                5.656854    -1.4821150765654e-06    1.91731236851339e-05    1.51140897176005e-05
115                      18                       6                2.828427   -1.39301946481135e-08    1.60012857448965e-07    1.83767355170914e-07
116                      18                       6                       0   -2.16910093329972e-09    2.51223985262461e-08    3.84934182976935e-08
117                      20                       4                5.656854   -4.24257465652377e-08      2.442426029314e-07    1.51174253546588e-07
118                      20                       4                2.828427   -1.72837629377356e-08    9.68386867842668e-08    8.83657868766628e-08
119                      20                       4                       0   -4.78046242571186e-11    3.10441302956652e-10     3.9481335124738e-10
120                      22                       6                5.656854   -2.59160544117884e-06     7.5426095152749e-06    5.76434562010272e-06
121                      22                       6                2.828427   -2.46788674170317e-08    7.02738384537544e-08    7.86085045975559e-08
122                      22                       6                       0   -3.86629172240662e-09    1.13019512492012e-08    1.70054698743169e-08
123                      24                       4                5.656854   -2.32287800610555e-08    5.39149611156086e-08    3.24399376855987e-08
124                      24                       4                2.828427    -1.0256772481127e-08    2.40469782547362e-08    2.14872674411793e-08
125                      24                       4                       0                       0                       0                       0
126                      26                       6                5.656854   -5.16296928205469e-07    7.51812037133375e-07    5.49985532885205e-07
127                      26                       6                2.828427   -6.28904976848576e-09    9.06031311873379e-09    9.83724124791135e-09
128                      26                       6                       0   -6.38486040159182e-10    9.60529746151298e-10    1.46979343796389e-09
129                      28                       4                5.656854    -2.3668544927104e-09     3.2629149475624e-09    1.91179423865717e-09
130                      28                       4                2.828427    -8.3984969435613e-10    1.16312350243975e-09    1.05248200028706e-09
131                      28                       4                       0                       0                       0                       0
132                      30                       6                5.656854   -2.08816386848989e-08    1.89015824096922e-08    1.35887118081506e-08
133                      30                       6                2.828427   -1.90512487498587e-10    1.77148710190893e-10    1.96010538149545e-10
134                      30                       6                       0                       0                       0                       0
135                       0                       8                5.656854    7.52330042594769e-11    2.61158730952151e-09    2.43473124409444e-09
136                       0                       8                2.828427    2.28208388748866e-11    8.66208133799148e-10    1.29031673629543e-09
137                       0                       8                       0                       0                       0                       0
138                       2                      10                5.656854    5.34701063457833e-07    2.74400065002385e-07    3.55461235505153e-07
139                       2                      10                2.828427    6.76138708092407e-09    3.48699604149614e-09    6.60884108459849e-09
140                       2                      10                       0    6.28333992775873e-10    2.84472495722265e-10    8.60657353926521e-10
141                       4                       8                5.656854    1.55350804809458e-07    1.37509725134562e-07    1.29026874116833e-07
142                       4                       8                2.828427      5.857021090552e-08    5.15806531769199e-08    7.12143011054805e-08
143                       4                       8                       0    1.47308140018159e-10    1.33943559847897e-10    2.65183636229761e-10
144                       6                      10                5.656854    2.34361531630935e-05    1.98723032817685e-05    2.69625140589722e-05
145                       6                      10                2.828427    1.61592716138516e-07     1.3577667510766e-07    2.64893794665355e-07
146                       6                      10                       0    2.37075535101076e-08    1.99366986674314e-08    5.05391065244692e-08
147                       8                       8                5.656854    2.21343743019474e-06    3.60394891170986e-06    3.52788932257557e-06
148                       8                       8                2.828427    5.41978405614084e-07    8.54241504963387e-07    1.21811344899541e-06
149                       8                       8                       0    2.48317914918625e-09    3.91707895460807e-09    7.38331301668289e-09
150                      10                      10                5.656854    0.000142145404266175    0.000272753468634915    0.000398729706481606
151                      10                      10                2.828427    6.44178062090314e-07     1.1652456622144e-06    2.41003235047214e-06
152                      10                      10                       0    7.30130529483468e-08    1.27141687839926e-07    3.35681399828241e-07
153                      12                       8                5.656854    4.30929636919432e-06    1.90237076530526e-05    1.98806905453591e-05
154                      12                       8                2.828427    8.38592106294088e-07    3.47763152928991e-06     5.2081183812275e-06
155                      12                       8                       0    3.46903840284173e-09    1.39212105823531e-08    2.71081265935878e-08
156                      14                      10                5.656854    5.58960135308656e-05    0.000650707182645712     0.00103325154465063
157                      14                      10                2.828427    2.79263139565184e-07    2.44852330449333e-06    5.37412164647871e-06
158                      14                      10                       0    3.35909503702381e-08    2.49566342822316e-07    6.87380019723785e-07
159                      16                       8                5.656854   -3.13605746243634e-08     2.6996854965213e-05    2.88562098338204e-05
160                      16                       8                2.828427   -5.89712644914343e-09     4.8087385796142e-06    7.34511333952368e-06
161                      16                       8                       0   -2.45752791278014e-11    1.88663686677166e-08    3.74107615605689e-08
162                      18                      10                5.656854   -5.77083095768138e-05    0.000648523153915293     0.00102886231265005
163                      18                      10                2.828427   -2.86009687692547e-07    2.44158045200875e-06    5.35497015517765e-06
164                      18                      10                       0   -3.43002163068046e-08    2.48952813222607e-07    6.85255779513177e-07
165                      20                       8                5.656854   -4.31938587292163e-06    1.88310256622641e-05    1.96594371461032e-05
166                      20                       8                2.828427   -8.41528110955199e-07    3.44936928697668e-06    5.16127779508941e-06
167                      20                       8                       0   -3.48578938631188e-09    1.38290128167852e-08    2.69061494347567e-08
168                      22                      10                5.656854   -0.000141004880157554    0.000268758744220777    0.000392139052366096
169                      22                      10                2.828427   -6.40800640960232e-07    1.15175625769762e-06    2.37840377626886e-06
170                      22                      10                       0   -7.27708199999362e-08    1.25931060257913e-07    3.32029560666243e-07
171                      24                       8                5.656854   -2.17524520512749e-06    3.52564003124974e-06    3.44648727429002e-06
172                      24                       8                2.828427   -5.34644735378646e-07    8.39011914803357e-07    1.19493651771829e-06
173                      24                       8                       0   -2.45777755388506e-09    3.85991786792704e-09    7.26664696794636e-09
174                      26                      10                5.656854   -2.28735509488593e-05     1.9345173364481e-05    2.61963275311552e-05
175                      26                      10                2.828427   -1.58511101600293e-07    1.32839615051869e-07    2.58734238295946e-07
176                      26                      10                       0   -2.33461379609756e-08    1.95805137360156e-08    4.95586502194275e-08
177                      28                       8                5.656854   -1.50960015396182e-07    1.33357751480525e-07    1.24955732118857e-07
178                      28                       8                2.828427   -5.71639403057749e-08    5.02411233410896e-08    6.92746997206081e-08
179                      28                       8                       0   -1.44510951173239e-10    1.31199480625787e-10    2.59244783252569e-10
180                      30                      10                5.656854   -5.17550473799483e-07    2.65486200865485e-07    3.43333783093965e-07
181                      30                      10                2.828427   -6.57583976135234e-09    3.38762574064927e-09    6.41014361093723e-09
182                      30                      10                       0   -6.14813976813247e-10    2.78443535176125e-10    8.39911455556435e-10
183                       0                      12                5.656854    7.80237200190312e-10    1.23319560586915e-08     2.4567653867175e-08
184                       0                      12                2.828427    3.16843155655514e-10    5.95236641449744e-09    1.69216220305469e-08
185                       0                      12                       0                       0                       0                       0
186                       2                      14                5.656854    2.68214126282009e-06    4.07374237135945e-07    1.78815051201598e-06
187                       2                      14                2.828427    2.91879476573222e-08    4.65050714828818e-09    2.84654207343906e-08
188                       2                      14                       0    5.11004003916553e-09    8.89134322984029e-10    6.78439931948885e-09
189                       4                      12                5.656854    2.36405535469517e-06    9.33913506798226e-07    2.00565938714945e-06
190                       4                      12                2.828427     6.0571108598783e-07    2.47344414485352e-07     7.4835060337228e-07
191                       4                      12                       0    2.86328100762044e-09    1.18716940044558e-09    4.72022743556056e-09
192                       6                      14                5.656854    0.000173060089028046     4.0529298947959e-05    0.000203883508098401
193                       6                      14                2.828427     8.2893014186145e-07    2.10503326478268e-07    1.39235239208276e-06
194                       6                      14                       0    9.66222438605058e-08    2.54685502960745e-08    2.08235471067443e-07
195                       8                      12                5.656854    5.26888966276409e-05    4.08912765604645e-05    9.52963570906895e-05
196                       8                      12                2.828427    6.69573222527989e-06     5.1192346501947e-06    1.64136391215065e-05
197                       8                      12                       0     2.1991877980989e-08    1.66332331120046e-08    6.70068448481006e-08
198                      10                      14                5.656854     0.00106241756376675    0.000645098217197964      0.0036941409851196
199                      10                      14                2.828427    3.15968858715717e-06     1.8677182662411e-06    1.35418321959085e-05
200                      10                      14                       0    2.79131089567092e-07    1.59748953016059e-07    1.39089066280944e-06
201                      12                      12                5.656854    8.10367633979612e-05    0.000204382254318491    0.000546400412542729