ITEM: TIMESTEP
0
ITEM: NUMBER OF ATOMS
422
ITEM: BOX BOUNDS pp pp pp
0.0000000000000000e+00 3.2000000000000000e+01
0.0000000000000000e+00 3.2000000000000000e+01
0.0000000000000000e+00 3.2000000000000000e+01
ITEM: ATOMS id xu yu zu fx fy fz
1        13.4459321938386        15.9835208156773                 8.65685    -0.00523305989977678    0.000717599981977389      0.0135222720134375
2        19.1274848400711        15.9892262416344                 8.65685     0.00522298063749525    0.000251489872073029     0.00283634383557177
3         17.702344993917         15.987795112765                 8.65685    -0.00328406978569324    0.000609291566090446      0.0172415899529819
4         14.871072038949        15.9849519429358                 8.65685     0.00592564572378984    0.000491304198783111     0.00751876064239687
5        17.0010751677692        14.7497248501637                 8.65685     -0.0288409298671198      0.0217443629502905      0.0672342723084525
6        15.5748269908674        14.7482926087119                 8.65685      0.0153021179229253     0.00903418425620317      0.0210780980800167
7        15.5723418650276        17.2230222053877                 8.65685      0.0149628511737693    -0.00914297002172437      0.0203279179225658
8        16.9985900414216        17.2244544465825                 8.65685     -0.0281125693434228     -0.0218693845845735      0.0650187317748118
9        14.8177569207574        13.5484462411751                 8.65685      0.0365263711999408     -0.0201711646439961       0.111249540992515
10        17.7605534827313        13.5514014038861                 8.65685     -0.0157385302021033       -0.02950834813787       0.171601048070944
11        14.8128635507729         18.421345651893                 8.65685      0.0371019295289285      0.0192307350486128       0.114017627997372
12        17.7556601106552        18.4243008141789                 8.65685      -0.016252902685321      0.0282418776921658       0.173870353108446
13        13.4273112602358        13.5624445878976                 8.65685     -0.0319669082034722     -0.0244116235644363       0.142941650117788
14        13.4224488081137        18.4045547622743                 8.65685     -0.0326928994444578      0.0228854406864537       0.145191807906141
15         19.150968226168        13.5681922935721                 8.65685      0.0339254165945339     -0.0129576732058664      0.0699364081300717
16        19.1461057714963        18.4103024705805                 8.65685      0.0344241659885071      0.0125396697863618      0.0714806354891729
17         12.726795838139        17.1943199436399                 8.65685      -0.022885593772437     -0.0149982171929492      0.0387827476864573
18        12.7292290587396        14.7712798150634                 8.65685     -0.0237439595880987      0.0149277368979168      0.0407472071742553
19        19.8466211966922        14.7784271122721                 8.65685     0.00550545542274245     0.00633967410510143      0.0107309649985257
20        19.8441879750283        17.2014672429596                 8.65685     0.00547976794253946    -0.00637019990952234       0.010354686914233
21        21.2551350226241        14.8244350858224                 8.65685     -0.0265084360425767      0.0293259767808726      0.0855877894715977
22        21.2527913622507        17.1582882295758                 8.65685     -0.0260568619538128     -0.0293330357336528      0.0835838206776482
23        11.3206256731611        14.8144588294926                 8.65685      0.0215555916959881      0.0139370383918768      0.0347283019948374
24        11.3182820131454        17.1483119722736                 8.65685      0.0207771902712834     -0.0140476149183847      0.0331169309616713
25        21.8867264607395        15.9919970781177                 8.65685   -0.000474000893952244    0.000169675698424038   -0.000955340647730352
26        10.6866905744716        15.9807499786644                 8.65685     0.00201369039818779    0.000301916339574922    -0.00400428164516848
27         21.909196045824        18.1859221409264                 8.65685    -0.00284254935467052     0.00582228044659772      0.0760840265001511
28        21.9136022867001        13.7981215696947                 8.65685    -0.00269504248843035    -0.00630019676420535      0.0757640533207036
29        10.6598147507275        18.1746254872963                 8.65685      0.0157543999031086     0.00414708451296642      0.0542601402712852
30        10.6642209902605        13.7868249167297                 8.65685      0.0156473701750492    -0.00499544202566022      0.0533406152021599
31        12.8998668222426        12.6154548000933                 8.65685   -0.000853541845692647    -0.00120528012162389     -0.0080772140701364
32        12.8931035005993        19.3504833212092                 8.65685   -0.000932243935380694     0.00125045056691628    -0.00791664418281811
33        19.6803135329519        12.6222637346313                 8.65685    0.000295780176055873   -0.000154007665542295    -0.00986243734166986
34        19.6735502071424         19.357292260389                 8.65685    0.000324507283702541    0.000170862482687879    -0.00981847142451774
35        15.2622865728669        12.5689605638796                 8.65685    0.000612157249145431   -0.000769471111859741    -0.00892301796354891
36         15.255425108682        19.4017221461408                 8.65685    0.000678937768024871    0.000824015773312217    -0.00878398241261866
37        17.3179919240215        12.5710249097393                 8.65685   -0.000865957317012516    -0.00210660882735099     -0.0064939071056143
38         17.311130457531        19.4037864905846                 8.65685   -0.000926060434411833     0.00217510060556034    -0.00629657413988285
39                       0                       0                5.656854                       0                       0                       0
40                       0                       0                2.828427                       0                       0                       0
41                       0                       0                       0                       0                       0                       0
42                       2                       2                5.656854    4.39043879932267e-10    5.97276240915429e-10    1.52019423916111e-10
43                       2                       2                2.828427                       0                       0                       0
44                       2                       2                       0                       0                       0                       0
45                       4                       0                5.656854                       0                       0                       0
46                       4                       0                2.828427                       0                       0                       0
47                       4                       0                       0                       0                       0                       0
48                       6                       2                5.656854    1.49030368909218e-08    2.87713157373558e-08    7.43441903696373e-09
49                       6                       2                2.828427     4.6867918651843e-10     9.1541487937315e-10    4.67720563283395e-10
50                       6                       2                       0                       0                       0                       0
51                       8                       0                5.656854    6.12935018355862e-10    4.05676226749122e-11    4.07710967352289e-10
52                       8                       0                2.828427    3.58052453051952e-10    1.82513858524066e-11    4.26193619323867e-10
53                       8                       0                       0                       0                       0                       0
54                      10                       2                5.656854    7.28063942343115e-08    2.65576242112275e-07    7.01023052855019e-08
55                      10                       2                2.828427    2.53557057570538e-09    9.49038615253579e-09    4.87103258480783e-09
56                      10                       2                       0    9.67120645869727e-10    3.81632626368387e-09    2.95980623145939e-09
57                      12                       0                5.656854    1.19278936159986e-09     1.9223553385974e-10    1.96149827349959e-09
58                      12                       0                2.828427    1.37378181612895e-09    1.81186391048267e-10    3.98242051151364e-09
59                      12                       0                       0                       0                       0                       0
60                      14                       2                5.656854    5.44298127774739e-08    7.15521472809778e-07    1.92099354967878e-07
61                      14                       2                2.828427    1.91385910081888e-09    2.49226963285635e-08    1.29534364664344e-08
62                      14                       2                       0    8.04848181708388e-10    1.11397626154043e-08      8.700558744704e-09
63                      16                       0                5.656854     1.4927203027669e-10    2.82792633557834e-10     3.2962537303022e-09
64                      16                       0                2.828427   -5.19637345957375e-13    1.38577657655822e-09    7.69167339348768e-09
65                      16                       0                       0                       0                       0                       0
66                      18                       2                5.656854    -4.2213017855873e-08    7.54318544800319e-07    2.02491666881217e-07
67                      18                       2                2.828427   -1.48343742143262e-09      2.628388709853e-08    1.36659108613824e-08
68                      18                       2                       0   -6.51622730362281e-10    1.11238642283011e-08    8.71851626971599e-09
69                      20                       0                5.656854   -1.30212020439257e-09    1.73188478194305e-10    2.32824572096857e-09
70                      20                       0                2.828427   -1.58483455461102e-09    1.95822523418169e-10    5.46984564165852e-09
71                      20                       0                       0                       0                       0                       0
72                      22                       2                5.656854   -8.02517686508532e-08    3.29019946004467e-07    8.70387347752767e-08
73                      22                       2                2.828427   -2.86418880715017e-09    1.18425952123767e-08    6.08227051808536e-09
74                      22                       2                       0   -9.49056569917914e-10    4.45025135451155e-09    3.45874523037946e-09
75                      24                       0                5.656854    -7.2176962505977e-10    3.51267349587856e-11    5.33970704406048e-10
76                      24                       0                2.828427   -4.19386743819966e-10    1.79752295483056e-11     5.6543012117279e-10
77                      24                       0                       0                       0                       0                       0
78                      26                       2                5.656854   -2.03734611874999e-08    4.27422112778406e-08     1.1041548352925e-08
79                      26                       2                2.828427   -7.38174235528613e-10    1.57337069057729e-09    7.95060588987363e-10
80                      26                       2                       0                       0                       0                       0
81                      28                       0                5.656854                       0                       0                       0
82                      28                       0                2.828427                       0                       0                       0
83                      28                       0                       0                       0                       0                       0
84                      30                       2                5.656854   -6.75174439488067e-10    9.85085126932258e-10    2.50484911771657e-10
85                      30                       2                2.828427                       0                       0                       0
86                      30                       2                       0                       0                       0                       0
87                       0                       4                5.656854   -9.43975716757914e-11    3.19936455402166e-10    9.79975619107146e-11
88                       0                       4                2.828427                       0                       0                       0
89                       0                       4                       0                       0                       0                       0
90                       2                       6                5.656854    7.16818657904113e-08    6.48453555542686e-08    2.40819459604535e-08
91                       2                       6                2.828427    2.66206160129073e-09    2.34971452855922e-09    1.70397258469108e-09
92                       2                       6                       0    8.47572908968032e-10     7.6174209472685e-10    8.46851845682125e-10
93                       4                       4                5.656854    8.82421616830273e-09    1.16456219986408e-08    3.54271186178058e-09
94                       4                       4                2.828427    1.02610596003836e-08    1.37460606806248e-08    8.12649107426111e-09
95                       4                       4                       0    9.03492969894072e-11    1.32683587815773e-10    1.17364101938669e-10
96                       6                       6                5.656854     2.6725323621593e-06    3.79304001046425e-06    1.44266384954834e-06
97                       6                       6                2.828427    7.54643551594762e-08    1.05806656776755e-07    7.76511990259992e-08
98                       6                       6                       0    2.97828538779517e-08    4.10057214989369e-08    4.48417053764401e-08
99                       8                       4                5.656854    1.13259022733009e-07    2.53623577310002e-07    7.91812174789938e-08
100                       8                       4                2.828427    1.16922289411904e-07    2.59632708132461e-07    1.56689328325757e-07
101                       8                       4                       0    1.61005715016419e-09    3.55104307789344e-09    3.19459993503957e-09
102                      10                       6                5.656854    2.00594890634907e-05    5.59625692458416e-05    2.23986888122031e-05
103                      10                       6                2.828427    4.24919221173828e-07    1.16526446754929e-06     8.9240946298237e-07
104                      10                       6                       0    1.31153579553275e-07    3.51832541209123e-07    3.93939723965949e-07
105                      12                       4                5.656854    2.66809582866616e-07    1.44898293873895e-06    4.67855217826757e-07
106                      12                       4                2.828427    2.40576661265942e-07    1.27546906955205e-06    7.92465327324865e-07
107                      12                       4                       0    3.02317554720767e-09    1.55987120756938e-08    1.42924826127005e-08
108                      14                       6                5.656854    1.42807274521147e-05    0.000177459805042761    7.36743335139184e-05
109                      14                       6                2.828427    2.89600617515979e-07     3.2173530317746e-06     2.5461873477867e-06
110                      14                       6                       0     8.6226386203565e-08    8.58373100513184e-07    9.88053926777901e-07
111                      16                       4                5.656854    1.84427268945664e-08    2.33762908570384e-06    7.63699538826721e-07
112                      16                       4                2.828427    1.78964737584569e-08     2.0021413615526e-06    1.25803392098575e-06
113                      16                       4                       0    2.47214045350108e-10    2.37560142647243e-08    2.19926068747009e-08
114                      18                       6                5.656854   -1.02643922392692e-05    0.000185976856289208    7.73505033090588e-05
115                      18                       6                2.828427   -2.14081826517822e-07    3.36921648709613e-06    2.67117091742324e-06
116                      18                       6                       0   -6.48742338144251e-08    8.97177651150937e-07    1.03462333435525e-06
117                      20                       4                5.656854   -2.50296215263271e-07    1.65205605852752e-06    5.34848139622375e-07
118                      20                       4                2.828427   -2.25805223227435e-07    1.44007821317662e-06    8.96963114230608e-07
119                      20                       4                       0   -2.82562110331079e-09    1.75371047681944e-08    1.60782364297095e-08
120                      22                       6                5.656854   -2.27379981675609e-05    7.22166796945329e-05     2.9119203624805e-05
121                      22                       6                2.828427   -4.66610289205882e-07    1.45545486381768e-06    1.12139402834581e-06
122                      22                       6                       0   -1.39585319800336e-07    4.25954723493747e-07    4.79373480204304e-07
123                      24                       4                5.656854    -1.4292343337393e-07    3.51230267976243e-07    1.10211818736551e-07
124                      24                       4                2.828427   -1.43988174341159e-07     3.5054839646833e-07    2.12417458823659e-07
125                      24                       4                       0   -1.94519614726275e-09    4.76160083113078e-09    4.28244046769664e-09
126                      26                       6                5.656854   -3.93747894878343e-06     6.0717351998092e-06    2.32018765376929e-06
127                      26                       6                2.828427   -1.06579539886288e-07    1.61832561663767e-07    1.19271275162418e-07
128                      26                       6                       0   -4.08236466883449e-08    6.13705582809133e-08     6.6809395493473e-08
129                      28                       4                5.656854   -1.36804397798791e-08    1.93040630105187e-08    5.88721394812461e-09
130                      28                       4                2.828427   -1.65115578555671e-08    2.34140024740735e-08    1.38289692025998e-08
131                      28                       4                       0   -1.72257845473711e-10    2.48092665005679e-10    2.25556629999679e-10
132                      30                       6                5.656854   -1.32054741027269e-07    1.23699271217012e-07    4.59852850239905e-08
133                      30                       6                2.828427   -4.77549625089662e-09    4.45936182280391e-09    3.22560217016174e-09
134                      30                       6                       0   -1.33031644079008e-09     1.2828913070133e-09    1.42416317979419e-09
135                       0                       8                5.656854   -7.85101586853813e-09    1.36134480680713e-08    6.49784682799432e-09
136                       0                       8                2.828427   -8.11183201883495e-09    1.53874804638955e-08    1.44176887632079e-08
137                       0                       8                       0   -7.77409963705466e-11    1.56054601213963e-10    2.33153986050481e-10
138                       2                      10                5.656854    2.22407149788022e-06    1.10767383382675e-06    7.52503005795696e-07
139                       2                      10                2.828427    6.55038617878932e-08    3.31502608290681e-08    4.29940220408323e-08
140                       2                      10                       0    2.79737118909996e-08    1.40097072855967e-08     2.6557392866379e-08
141                       4                       8                5.656854    7.62255722595572e-07    6.52562586654098e-07    3.19485498954092e-07
142                       4                       8                2.828427     6.5937104096573e-07    5.62759283420504e-07    5.29238802128372e-07
143                       4                       8                       0    7.89006178350327e-09    6.70636715605519e-09    9.29526403517508e-09
144                       6                      10                5.656854    0.000212679154375076    0.000172608675579304    0.000124323993831301
145                       6                      10                2.828427    3.20379192895156e-06    2.58917179170765e-06    3.51548154564361e-06
146                       6                      10                       0    7.38112659699647e-07    5.93481695974322e-07    1.15732186856413e-06
147                       8                       8                5.656854    1.98022251380245e-05    3.15574791705722e-05    1.61718263693161e-05
148                       8                       8                2.828427    1.06527204342719e-05    1.64261000553306e-05    1.60847527316136e-05
149                       8                       8                       0    8.28915448385807e-08    1.24027289878117e-07    1.76792273026186e-07
150                      10                      10                5.656854     0.00262777563647226     0.00492798051669733     0.00386633830743914
151                      10                      10                2.828427    2.29565435868131e-05    4.09565686834039e-05    5.96717805837706e-05
152                      10                      10                       0    3.39373297576396e-06    5.71160316732576e-06    1.17824974127089e-05
153                      12                       8                5.656854    6.42813298985019e-05     0.00026462416270405     0.00014789050904919
154                      12                       8                2.828427    2.45548305749999e-05    9.71188496549696e-05    0.000101549081617444
155                      12                       8                       0    1.48623648341749e-07    5.56631954961366e-07     8.3339336702993e-07
156                      14                      10                5.656854     0.00137435902107193      0.0148257204070901      0.0129446693384891
157                      14                      10                2.828427     1.1940553073339e-05    0.000108897498305843    0.000173212081523722
158                      14                      10                       0    1.80357597929218e-06    1.30680713789163e-05    2.86885495022565e-05
159                      16                       8                5.656854    1.86986711400916e-06    0.000423107178484708     0.00024317798031147
160                      16                       8                2.828427    1.17203871974135e-06    0.000147938038593036    0.000158816803360342
161                      16                       8                       0    9.38917121366489e-09    8.16895252325463e-07    1.25130825606449e-06
162                      18                      10                5.656854   -0.000728250693911344      0.0152495174217535      0.0133646576349953
163                      18                      10                2.828427    -7.6566886304489e-06    0.000112325592180802    0.000179413919455887
164                      18                      10                       0   -1.29287373506054e-06    1.35265478779535e-05    2.98073658027042e-05
165                      20                       8                5.656854   -5.90124715998776e-05    0.000308492422645877    0.000173635976098555
166                      20                       8                2.828427    -2.2491809902073e-05    0.000110232647148691    0.000116012883787767
167                      20                       8                       0   -1.35933953425623e-07    6.20073248715456e-07    9.33375161076659e-07
168                      22                      10                5.656854    -0.00303156578109271     0.00648354587892086     0.00519066408563702
169                      22                      10                2.828427   -2.51471436619126e-05    5.16529810590144e-05    7.63262915253161e-05
170                      22                      10                       0   -3.58137374073506e-06    6.93286493414506e-06    1.44369402102524e-05
171                      24                       8                5.656854    -2.6709743344119e-05    4.73868838993928e-05    2.45170942556995e-05
172                      24                       8                2.828427   -1.35772384559811e-05    2.32463039402044e-05    2.29359302011711e-05
173                      24                       8                       0   -1.00895247695085e-07    1.66894576922426e-07    2.39177011337024e-07
174                      26                      10                5.656854   -0.000357676681826649    0.000321806376763901    0.000233323757957598
175                      26                      10                2.828427   -4.85784974824145e-06    4.31730184508905e-06    5.89628459706651e-06
176                      26                      10                       0   -1.02916047606327e-06     9.0305130008336e-07    1.77012622678467e-06
177                      28                       8                5.656854   -1.34172832429997e-06    1.23783022131359e-06    6.08284286114207e-07
178                      28                       8                2.828427   -1.08212519550934e-06    9.92801920400052e-07    9.36614268654977e-07
179                      28                       8                       0   -1.21743449707226e-08    1.10968566216703e-08    1.53853588838314e-08
180                      30                      10                5.656854   -4.57057899127135e-06    2.37842645552007e-06    1.62703654972827e-06
181                      30                      10                2.828427   -1.24701045399311e-07    6.55975021551683e-08    8.54154734611729e-08
182                      30                      10                       0   -4.78797541444124e-08    2.54290404000971e-08    4.84050422031465e-08
183                       0                      12                5.656854   -9.36065971343559e-08    6.62946213846547e-08    7.01586266453245e-08
184                       0                      12                2.828427   -9.31031673730035e-08    7.31725898337176e-08    1.46800096012674e-07
185                       0                      12                       0   -1.32942738150056e-09    9.76362705836656e-10    2.91811355244963e-09
186                       2                      14                5.656854    1.25588647510478e-05    1.77718079722201e-06    4.23804264625084e-06
187                       2                      14                2.828427    3.19989464557597e-07    4.79948205789118e-08     2.0971700198528e-07
188                       2                      14                       0    1.17713716572892e-07    1.83571289277447e-08    1.12616602659063e-07
189                       4                      12                5.656854    1.62019227616068e-05    5.95042455849464e-06    6.92813734826293e-06
190                       4                      12                2.828427     9.5593102580446e-06    3.64715314851775e-06    7.81766433947959e-06
191                       4                      12                       0    8.04362447933235e-08    3.17152744475943e-08    9.58179681743791e-08
192                       6                      14                5.656854     0.00226675299830942    0.000448726739409497     0.00134661329207436
193                       6                      14                2.828427    2.29281245517861e-05     5.1378626724919e-06    2.56733370198808e-05
194                       6                      14                       0    3.73592574729051e-06    9.07317276099274e-07    5.98056970460656e-06
195                       8                      12                5.656854     0.00109313534349179    0.000792600660519522     0.00103194614799917
196                       8                      12                2.828427    0.000247869183962654     0.00017983525435048    0.000417933212149719
197                       8                      12                       0    1.01837007482533e-06     7.3372479457578e-07    2.34644413643113e-06
198                      10                      14                5.656854     -0.0188360493554275    -0.00125649974623794     -0.0938787984379631
199                      10                      14                2.828427    0.000178411677820621    9.82685760819834e-05    0.000560064630041999
200                      10                      14                       0    1.69122285875854e-05    9.20187152372549e-06    6.62618364957577e-05
201                      12                      12                5.656854     0.00216385280302456     0.00551008945980093     0.00788086037649528