ITEM: TIMESTEP
0
ITEM: NUMBER OF ATOMS
422
ITEM: BOX BOUNDS ff ff ff
0.0000000000000000e+00 2.3200000000000000e+02
0.0000000000000000e+00 2.3200000000000000e+02
0.0000000000000000e+00 2.3200000000000000e+02
ITEM: ATOMS id xu yu zu fx fy fz
1        113.131882195489        115.969470817328        108.642804001651        3.10162888458388        2.85393304951005      0.0262785679922959
2        118.821173991433        115.982915392996        108.650543151362        1.30943060601994       0.211815444504832     0.00443176479067214
3        117.446660126799        116.032110245647        108.701169132882       -2.46618258050311       -2.70205136934571       -0.14112533269851
4        114.586419658876        116.000299562863        108.672201619927      -0.494327992960414       0.493578399398551     -0.0683368430849456
5        116.707579425851        114.756229108246        108.663358258082       0.229088509631832        1.18768130184028     -0.0408358013615016
6         115.25728994507        114.730755562914        108.639316954202        1.94538312090142        2.31085064622017      0.0929507442454688
7        115.309950249918        117.260630590278        108.694462384891       -3.40359389109582       -1.36543366616335     0.00707732487176059
8        116.655237244536        117.181101649697        108.613501203114        2.47344524673567       0.712091226503068     -0.0218060049135095
9        114.534235784796        113.564925105214        108.673332864039      -0.713335835084842         0.2773048854507    -0.00696369656860816
10         117.41186039342        113.502708314575        108.608160910688        2.78745555662121        3.29123034858882       0.243103000813702
11        114.532361488238        118.440843589358        108.676351937465      -0.475484436251513       -1.08072107115865    0.000180167438334894
12        117.413542988473        118.382183691997        108.614736877818        1.24312390698277      -0.406703951484888       0.140541018679573
13        113.147315743149        113.582449070811        108.676858482914       -1.30652719821095       -1.17741190925849     -0.0928738425074335
14        113.121927119272        118.404033073433        108.656332311159        1.40647361701389      -0.142260705195131      0.0240372269730163
15        118.874687085345        113.591911152749        108.680572859177       -3.47124439926023        -1.1907529000526      -0.191041996670939
16        118.852974633159        118.417171332243        108.663722861663       -2.99445533212869       -2.55744930137628      0.0093864726966226
17        112.438961572688        117.206485678189        108.669019734549       0.629686201221577       -1.38210336399259     -0.0262810125124913
18        112.467180419448        114.809231175772        108.694805360708        -2.9760048676961        -2.2422471422412     -0.0121415743047616
19        119.549486771982        114.781292687562         108.65971957529         1.3436077686894        1.35989656797304    -0.00136359907311128
20        119.540049252214        117.197328520145        108.652715277186      -0.844404924003936      -0.387340885697964    0.000496942525099202
21        120.968767682647        114.838067745846        108.670486660023       -1.36319203302512      -0.197146116624917     -0.0163343189622509
22        120.922813020897        117.128309888222        108.626875658646        4.24129318500902        6.46534438278911       0.473205150999224
23        111.023177136996        114.817010293328        108.659405463835        3.78720976423266        2.98608215543021     -0.0157972274441543
24        111.057097748915        117.187127708043        108.695669735769       -1.51416831600253       -4.37470379165134      -0.102421338977726
25        121.591536401203        115.996807018581        108.661663940464      -0.176652325974761     -0.0388454841931644     -0.0028972963118088
26        110.380955680232        115.975015084425         108.65111910576        2.42834536635773        3.15465742960432       0.142339975388668
27        121.657178555441        118.233904650544        108.704836509617       -4.37887909217036       -6.59244689655364      -0.464865416835396
28        121.618982881365         113.80350216436        108.662234594665      -0.193548106087653       0.307956826162808      0.0024563738659268
29        110.339512220398        118.154322956967        108.636551469671      -0.460503002343904       0.620687427884774     -0.0379385285097202
30        110.398170839934        113.820774766403        108.690803849674       -1.50513561656379       -2.39912714657178       0.075613364297669
31        112.567841462966        112.583429440816        108.624828640723        1.16024361068534        2.00027194008198        0.10417596437181
32        112.563810103007        119.321189923617        108.627560602408      -0.119327259935286       0.196091161304474    -0.00615148628133276
33        119.362924476509        112.604874678189        108.639464943557      -0.282087719958564       0.570277642931858      0.0237508195789968
34        119.329882466345        119.313624519592        108.613186259203       0.941512119824549        1.76977915230454     -0.0997694321613852
35        115.006138167148         112.61281215816        108.700705594281       0.253527879469176      -0.511519300408743      0.0147059021379517
36        114.981911935031        119.428208972489        108.683340826349      -0.044886064054909     -0.0985850334462077   -0.000697816488358024
37        116.991580290913        112.544613276631        108.630442366892      -0.435242161787866      -0.992203421065427      0.0230746806899278
38        117.034322098045        119.426978131098        108.680045640514        0.33772781112028      -0.930476532001514      -0.058162896688776
39                     100                     100              105.656854                       0                       0                       0
40                     100                     100              102.828427                       0                       0                       0
41                     100                     100                     100                       0                       0                       0
42                     102                     102              105.656854                       0                       0                       0
43                     102                     102              102.828427                       0                       0                       0
44                     102                     102                     100                       0                       0                       0
45                     104                     100              105.656854                       0                       0                       0
46                     104                     100              102.828427                       0                       0                       0
47                     104                     100                     100                       0                       0                       0
48                     106                     102              105.656854                       0                       0                       0
49                     106                     102              102.828427                       0                       0                       0
50                     106                     102                     100                       0                       0                       0
51                     108                     100              105.656854                       0                       0                       0
52                     108                     100              102.828427                       0                       0                       0
53                     108                     100                     100                       0                       0                       0
54                     110                     102              105.656854                       0                       0                       0
55                     110                     102              102.828427                       0                       0                       0
56                     110                     102                     100                       0                       0                       0
57                     112                     100              105.656854                       0                       0                       0
58                     112                     100              102.828427                       0                       0                       0
59                     112                     100                     100                       0                       0                       0
60                     114                     102              105.656854                       0                       0                       0
61                     114                     102              102.828427                       0                       0                       0
62                     114                     102                     100                       0                       0                       0
63                     116                     100              105.656854                       0                       0                       0
64                     116                     100              102.828427                       0                       0                       0
65                     116                     100                     100                       0                       0                       0
66                     118                     102              105.656854                       0                       0                       0
67                     118                     102              102.828427                       0                       0                       0
68                     118                     102                     100                       0                       0                       0
69                     120                     100              105.656854                       0                       0                       0
70                     120                     100              102.828427                       0                       0                       0
71                     120                     100                     100                       0                       0                       0
72                     122                     102              105.656854                       0                       0                       0
73                     122                     102              102.828427                       0                       0                       0
74                     122                     102                     100                       0                       0                       0
75                     124                     100              105.656854                       0                       0                       0
76                     124                     100              102.828427                       0                       0                       0
77                     124                     100                     100                       0                       0                       0
78                     126                     102              105.656854                       0                       0                       0
79                     126                     102              102.828427                       0                       0                       0
80                     126                     102                     100                       0                       0                       0
81                     128                     100              105.656854                       0                       0                       0
82                     128                     100              102.828427                       0                       0                       0
83                     128                     100                     100                       0                       0                       0
84                     130                     102              105.656854                       0                       0                       0
85                     130                     102              102.828427                       0                       0                       0
86                     130                     102                     100                       0                       0                       0
87                     100                     104              105.656854                       0                       0                       0
88                     100                     104              102.828427                       0                       0                       0
89                     100                     104                     100                       0                       0                       0
90                     102                     106              105.656854                       0                       0                       0
91                     102                     106              102.828427                       0                       0                       0
92                     102                     106                     100                       0                       0                       0
93                     104                     104              105.656854                       0                       0                       0
94                     104                     104              102.828427                       0                       0                       0
95                     104                     104                     100                       0                       0                       0
96                     106                     106              105.656854                       0                       0                       0
97                     106                     106              102.828427                       0                       0                       0
98                     106                     106                     100                       0                       0                       0
99                     108                     104              105.656854                       0                       0                       0
100                     108                     104              102.828427                       0                       0                       0
101                     108                     104                     100                       0                       0                       0
102                     110                     106              105.656854                       0                       0                       0
103                     110                     106              102.828427                       0                       0                       0
104                     110                     106                     100                       0                       0                       0
105                     112                     104              105.656854                       0                       0                       0
106                     112                     104              102.828427                       0                       0                       0
107                     112                     104                     100                       0                       0                       0
108                     114                     106              105.656854                       0                       0                       0
109                     114                     106              102.828427                       0                       0                       0
110                     114                     106                     100                       0                       0                       0
111                     116                     104              105.656854                       0                       0                       0
112                     116                     104              102.828427                       0                       0                       0
113                     116                     104                     100                       0                       0                       0
114                     118                     106              105.656854                       0                       0                       0
115                     118                     106              102.828427                       0                       0                       0
116                     118                     106                     100                       0                       0                       0
117                     120                     104              105.656854                       0                       0                       0
118                     120                     104              102.828427                       0                       0                       0
119                     120                     104                     100                       0                       0                       0
120                     122                     106              105.656854                       0                       0                       0
121                     122                     106              102.828427                       0                       0                       0
122                     122                     106                     100                       0                       0                       0
123                     124                     104              105.656854                       0                       0                       0
124                     124                     104              102.828427                       0                       0                       0
125                     124                     104                     100                       0                       0                       0
126                     126                     106              105.656854                       0                       0                       0
127                     126                     106              102.828427                       0                       0                       0
128                     126                     106                     100                       0                       0                       0
129                     128                     104              105.656854                       0                       0                       0
130                     128                     104              102.828427                       0                       0                       0
131                     128                     104                     100                       0                       0                       0
132                     130                     106              105.656854                       0                       0                       0
133                     130                     106              102.828427                       0                       0                       0
134                     130                     106                     100                       0                       0                       0
135                     100                     108              105.656854                       0                       0                       0
136                     100                     108              102.828427                       0                       0                       0
137                     100                     108                     100                       0                       0                       0
138                     102                     110              105.656854                       0                       0                       0
139                     102                     110              102.828427                       0                       0                       0
140                     102                     110                     100                       0                       0                       0
141                     104                     108              105.656854                       0                       0                       0
142                     104                     108              102.828427                       0                       0                       0
143                     104                     108                     100                       0                       0                       0
144                     106                     110              105.656854                       0                       0                       0
145                     106                     110              102.828427                       0                       0                       0
146                     106                     110                     100                       0                       0                       0
147                     108                     108              105.656854                       0                       0                       0
148                     108                     108              102.828427                       0                       0                       0
149                     108                     108                     100                       0                       0                       0
150                     110                     110              105.656854                       0                       0                       0
151                     110                     110              102.828427                       0                       0                       0
152                     110                     110                     100                       0                       0                       0
153                     112                     108              105.656854                       0                       0                       0
154                     112                     108              102.828427                       0                       0                       0
155                     112                     108                     100                       0                       0                       0
156                     114                     110              105.656854                       0                       0                       0
157                     114                     110              102.828427                       0                       0                       0
158                     114                     110                     100                       0                       0                       0
159                     116                     108              105.656854                       0                       0                       0
160                     116                     108              102.828427                       0                       0                       0
161                     116                     108                     100                       0                       0                       0
162                     118                     110              105.656854                       0                       0                       0
163                     118                     110              102.828427                       0                       0                       0
164                     118                     110                     100                       0                       0                       0
165                     120                     108              105.656854                       0                       0                       0
166                     120                     108              102.828427                       0                       0                       0
167                     120                     108                     100                       0                       0                       0
168                     122                     110              105.656854                       0                       0                       0
169                     122                     110              102.828427                       0                       0                       0
170                     122                     110                     100                       0                       0                       0
171                     124                     108              105.656854                       0                       0                       0
172                     124                     108              102.828427                       0                       0                       0
173                     124                     108                     100                       0                       0                       0
174                     126                     110              105.656854                       0                       0                       0
175                     126                     110              102.828427                       0                       0                       0
176                     126                     110                     100                       0                       0                       0
177                     128                     108              105.656854                       0                       0                       0
178                     128                     108              102.828427                       0                       0                       0
179                     128                     108                     100                       0                       0                       0
180                     130                     110              105.656854                       0                       0                       0
181                     130                     110              102.828427                       0                       0                       0
182                     130                     110                     100                       0                       0                       0
183                     100                     112              105.656854                       0                       0                       0
184                     100                     112              102.828427                       0                       0                       0
185                     100                     112                     100                       0                       0                       0
186                     102                     114              105.656854                       0                       0                       0
187                     102                     114              102.828427                       0                       0                       0
188                     102                     114                     100                       0                       0                       0
189                     104                     112              105.656854                       0                       0                       0
190                     104                     112              102.828427                       0                       0                       0
191                     104                     112                     100                       0                       0                       0
192                     106                     114              105.656854                       0                       0                       0
193                     106                     114              102.828427                       0                       0                       0
194                     106                     114                     100                       0                       0                       0
195                     108                     112              105.656854                       0                       0                       0
196                     108                     112              102.828427                       0                       0                       0
197                     108                     112                     100                       0                       0                       0
198                     110                     114              105.656854                       0                       0                       0
199                     110                     114              102.828427                       0                       0                       0
200                     110                     114                     100                       0                       0                       0
201                     112                     112              105.656854                       0                       0                       0