ITEM: TIMESTEP
0
ITEM: NUMBER OF ATOMS
422
ITEM: BOX BOUNDS ff ff ff
0.0000000000000000e+00 2.3200000000000000e+02
0.0000000000000000e+00 2.3200000000000000e+02
0.0000000000000000e+00 2.3200000000000000e+02
ITEM: ATOMS id xu yu zu fx fy fz
1        113.154775380892        115.992364002731        108.665697187054      -0.553706498988159       -5.78804580033817       0.214386079559487
2        118.828536648911        115.990278050474         108.65790580884       -1.82421926455721         3.1671585874512      0.0330216710472558
3        117.380583195867        115.966033314715         108.63509220195        2.93300504595659        3.25667570250693      -0.512657648349296
4        114.562992289012        115.976872192999        108.648774250063      -0.313802982908316       0.263620891493304       0.114721978249059
5        116.659762019207        114.708411701602        108.615540851438        2.03155123324047      0.0157710209594385      -0.124680493210935
6        115.279937911679        114.753403529524        108.661964920812       -3.32323445132949       -5.39828263703949      -0.100125218995411
7        115.270803466906        117.221483807267        108.655315601879       0.502936859873635        3.36301362302712       0.138534854138901
8        116.667081708645        117.192946113806        108.625345667224        4.74794688369107        5.50886459779488      -0.106639822169812
9        114.480094396346        113.510783716764        108.619191475589         7.9697498793307       -2.67688105937879      -0.259109051128855
10        117.500651513423        113.591499434578        108.696952030692       -9.61699535559513       -12.3634145173985       0.295603324961473
11        114.558809761816        118.467291862936        108.702800211043       -1.68664582704283        2.30160812022044       0.226489015822049
12        117.479976603521        118.448617307045        108.681170492866       -7.98068110798884        1.05603476381405        0.18044727529859
13        113.087255705985        113.522389033647        108.616798445749       -1.13069218889595       -4.07214559859232       -0.45134595945479
14          113.0752905003         118.35739645446        108.609695692186        5.86064470512727        16.2459186084804      -0.489454322449562
15        118.828177164116         113.54540123152        108.634062937948        8.88490287248082       -4.27348873446579     -0.0793246064822606
16        118.894394336137        118.458591035221         108.70514256464       -1.30189947844963        3.15829076567292       0.672013322309819
17        112.445836521798        117.213360627299        108.675894683659       -2.49725246783636       -2.45546348381251       0.298999277894775
18        112.405842784606         114.74789354093        108.633467725867       -1.97829768031437        1.83507121081709      -0.182464540930579
19        119.566618284231        114.798424199811        108.676851087539        1.09744486858562       -2.40716112111778     -0.0115803696587975
20        119.591335720147        117.248614988078        108.704001745119       -3.69487239490011       -4.85076741788097       0.501704609764113
21        120.980377666229        114.849677729427        108.682096643604        6.99099377087607       -11.1615186967909      0.0395700720867779
22        120.985402196958        117.190899064283        108.689464834708         6.5965709777342        4.85206779109817       0.158184299925533
23        110.981540513026        114.775373669358        108.617768839865       -7.29250279676845       -3.35901146392715      -0.138281807053131
24        111.059634713881        117.189664673009        108.698206700735       -13.6618157331218        2.21843003724447       0.636179996861994
25        121.600156748431        116.005427365809        108.670284287692        5.27513571710041       0.137486532790422      0.0387306798321937
26        110.412192845348        116.006252249541        108.682356270876       -3.70266026690065       -2.31633445137182       0.120025229047834
27        121.604038221471        118.180764316574        108.651696175647        9.18285331910408        10.1559409005057      -0.332669151964241
28        121.600207810226        113.784727093221        108.643459523526        4.74427199605065       -4.56046890968959     -0.0821663685782908
29        110.353723813922         118.16853455049        108.650763063194       -5.22979923122508        6.84816176401802      -0.135006768644036
30        110.325970375093        113.748574301562        108.618603384832       -4.46381609485462       -4.29381470335351     -0.0999653976714084
31        112.622466799359         112.63805477721        108.679453977117       -6.27471637025388       -8.99727334679526       0.429929547853843
32        112.598500538693        119.355880359302        108.662251038093       -2.33001278252321        4.21585507595931      -0.123280014551718
33         119.37667553024         112.61862573192        108.653215997288        3.49049020479261       -4.84126026309696      -0.113800188075413
34        119.333989302642        119.317731355889          108.6172930955         6.6639183780947        10.9309907826035      -0.728602461114052
35        115.007228026986        112.613902017999        108.701795454119        2.63278313510653       -6.01057922204749       0.346316743246505
36        114.928403590167        119.374700627626        108.629832481485        3.67550009955294        7.71105282657153      -0.217321736746012
37        116.993010866084        112.546043851802        108.631872942063       -1.77308586229822       -2.81518419546323       0.124742343934478
38        116.963903580098        119.356559613152        108.609627122567       -2.64999110994606        5.39908201953125      -0.281124394606079
39                     100                     100              105.656854                       0                       0                       0
40                     100                     100              102.828427                       0                       0                       0
41                     100                     100                     100                       0                       0                       0
42                     102                     102              105.656854                       0                       0                       0
43                     102                     102              102.828427                       0                       0                       0
44                     102                     102                     100                       0                       0                       0
45                     104                     100              105.656854                       0                       0                       0
46                     104                     100              102.828427                       0                       0                       0
47                     104                     100                     100                       0                       0                       0
48                     106                     102              105.656854                       0                       0                       0
49                     106                     102              102.828427                       0                       0                       0
50                     106                     102                     100                       0                       0                       0
51                     108                     100              105.656854                       0                       0                       0
52                     108                     100              102.828427                       0                       0                       0
53                     108                     100                     100                       0                       0                       0
54                     110                     102              105.656854                       0                       0                       0
55                     110                     102              102.828427                       0                       0                       0
56                     110                     102                     100                       0                       0                       0
57                     112                     100              105.656854                       0                       0                       0
58                     112                     100              102.828427                       0                       0                       0
59                     112                     100                     100                       0                       0                       0
60                     114                     102              105.656854                       0                       0                       0
61                     114                     102              102.828427                       0                       0                       0
62                     114                     102                     100                       0                       0                       0
63                     116                     100              105.656854                       0                       0                       0
64                     116                     100              102.828427                       0                       0                       0
65                     116                     100                     100                       0                       0                       0
66                     118                     102              105.656854                       0                       0                       0
67                     118                     102              102.828427                       0                       0                       0
68                     118                     102                     100                       0                       0                       0
69                     120                     100              105.656854                       0                       0                       0
70                     120                     100              102.828427                       0                       0                       0
71                     120                     100                     100                       0                       0                       0
72                     122                     102              105.656854                       0                       0                       0
73                     122                     102              102.828427                       0                       0                       0
74                     122                     102                     100                       0                       0                       0
75                     124                     100              105.656854                       0                       0                       0
76                     124                     100              102.828427                       0                       0                       0
77                     124                     100                     100                       0                       0                       0
78                     126                     102              105.656854                       0                       0                       0
79                     126                     102              102.828427                       0                       0                       0
80                     126                     102                     100                       0                       0                       0
81                     128                     100              105.656854                       0                       0                       0
82                     128                     100              102.828427                       0                       0                       0
83                     128                     100                     100                       0                       0                       0
84                     130                     102              105.656854                       0                       0                       0
85                     130                     102              102.828427                       0                       0                       0
86                     130                     102                     100                       0                       0                       0
87                     100                     104              105.656854                       0                       0                       0
88                     100                     104              102.828427                       0                       0                       0
89                     100                     104                     100                       0                       0                       0
90                     102                     106              105.656854                       0                       0                       0
91                     102                     106              102.828427                       0                       0                       0
92                     102                     106                     100                       0                       0                       0
93                     104                     104              105.656854                       0                       0                       0
94                     104                     104              102.828427                       0                       0                       0
95                     104                     104                     100                       0                       0                       0
96                     106                     106              105.656854                       0                       0                       0
97                     106                     106              102.828427                       0                       0                       0
98                     106                     106                     100                       0                       0                       0
99                     108                     104              105.656854                       0                       0                       0
100                     108                     104              102.828427                       0                       0                       0
101                     108                     104                     100                       0                       0                       0
102                     110                     106              105.656854                       0                       0                       0
103                     110                     106              102.828427                       0                       0                       0
104                     110                     106                     100                       0                       0                       0
105                     112                     104              105.656854                       0                       0                       0
106                     112                     104              102.828427                       0                       0                       0
107                     112                     104                     100                       0                       0                       0
108                     114                     106              105.656854                       0                       0                       0
109                     114                     106              102.828427                       0                       0                       0
110                     114                     106                     100                       0                       0                       0
111                     116                     104              105.656854                       0                       0                       0
112                     116                     104              102.828427                       0                       0                       0
113                     116                     104                     100                       0                       0                       0
114                     118                     106              105.656854                       0                       0                       0
115                     118                     106              102.828427                       0                       0                       0
116                     118                     106                     100                       0                       0                       0
117                     120                     104              105.656854                       0                       0                       0
118                     120                     104              102.828427                       0                       0                       0
119                     120                     104                     100                       0                       0                       0
120                     122                     106              105.656854                       0                       0                       0
121                     122                     106              102.828427                       0                       0                       0
122                     122                     106                     100                       0                       0                       0
123                     124                     104              105.656854                       0                       0                       0
124                     124                     104              102.828427                       0                       0                       0
125                     124                     104                     100                       0                       0                       0
126                     126                     106              105.656854                       0                       0                       0
127                     126                     106              102.828427                       0                       0                       0
128                     126                     106                     100                       0                       0                       0
129                     128                     104              105.656854                       0                       0                       0
130                     128                     104              102.828427                       0                       0                       0
131                     128                     104                     100                       0                       0                       0
132                     130                     106              105.656854                       0                       0                       0
133                     130                     106              102.828427                       0                       0                       0
134                     130                     106                     100                       0                       0                       0
135                     100                     108              105.656854                       0                       0                       0
136                     100                     108              102.828427                       0                       0                       0
137                     100                     108                     100                       0                       0                       0
138                     102                     110              105.656854                       0                       0                       0
139                     102                     110              102.828427                       0                       0                       0
140                     102                     110                     100                       0                       0                       0
141                     104                     108              105.656854                       0                       0                       0
142                     104                     108              102.828427                       0                       0                       0
143                     104                     108                     100                       0                       0                       0
144                     106                     110              105.656854                       0                       0                       0
145                     106                     110              102.828427                       0                       0                       0
146                     106                     110                     100                       0                       0                       0
147                     108                     108              105.656854                       0                       0                       0
148                     108                     108              102.828427                       0                       0                       0
149                     108                     108                     100                       0                       0                       0
150                     110                     110              105.656854                       0                       0                       0
151                     110                     110              102.828427                       0                       0                       0
152                     110                     110                     100                       0                       0                       0
153                     112                     108              105.656854                       0                       0                       0
154                     112                     108              102.828427                       0                       0                       0
155                     112                     108                     100                       0                       0                       0
156                     114                     110              105.656854                       0                       0                       0
157                     114                     110              102.828427                       0                       0                       0
158                     114                     110                     100                       0                       0                       0
159                     116                     108              105.656854                       0                       0                       0
160                     116                     108              102.828427                       0                       0                       0
161                     116                     108                     100                       0                       0                       0
162                     118                     110              105.656854                       0                       0                       0
163                     118                     110              102.828427                       0                       0                       0
164                     118                     110                     100                       0                       0                       0
165                     120                     108              105.656854                       0                       0                       0
166                     120                     108              102.828427                       0                       0                       0
167                     120                     108                     100                       0                       0                       0
168                     122                     110              105.656854                       0                       0                       0
169                     122                     110              102.828427                       0                       0                       0
170                     122                     110                     100                       0                       0                       0
171                     124                     108              105.656854                       0                       0                       0
172                     124                     108              102.828427                       0                       0                       0
173                     124                     108                     100                       0                       0                       0
174                     126                     110              105.656854                       0                       0                       0
175                     126                     110              102.828427                       0                       0                       0
176                     126                     110                     100                       0                       0                       0
177                     128                     108              105.656854                       0                       0                       0
178                     128                     108              102.828427                       0                       0                       0
179                     128                     108                     100                       0                       0                       0
180                     130                     110              105.656854                       0                       0                       0
181                     130                     110              102.828427                       0                       0                       0
182                     130                     110                     100                       0                       0                       0
183                     100                     112              105.656854                       0                       0                       0
184                     100                     112              102.828427                       0                       0                       0
185                     100                     112                     100                       0                       0                       0
186                     102                     114              105.656854                       0                       0                       0
187                     102                     114              102.828427                       0                       0                       0
188                     102                     114                     100                       0                       0                       0
189                     104                     112              105.656854                       0                       0                       0
190                     104                     112              102.828427                       0                       0                       0
191                     104                     112                     100                       0                       0                       0
192                     106                     114              105.656854                       0                       0                       0
193                     106                     114              102.828427                       0                       0                       0
194                     106                     114                     100                       0                       0                       0
195                     108                     112              105.656854                       0                       0                       0
196                     108                     112              102.828427                       0                       0                       0
197                     108                     112                     100                       0                       0                       0
198                     110                     114              105.656854                       0                       0                       0
199                     110                     114              102.828427                       0                       0                       0
200                     110                     114                     100                       0                       0                       0
201                     112                     112              105.656854                       0                       0                       0