ITEM: TIMESTEP
0
ITEM: NUMBER OF ATOMS
422
ITEM: BOX BOUNDS ff ff ff
0.0000000000000000e+00 2.3200000000000000e+02
0.0000000000000000e+00 2.3200000000000000e+02
0.0000000000000000e+00 2.3200000000000000e+02
ITEM: ATOMS id xu yu zu fx fy fz
1        113.142426363465        115.980014985304        108.653348169626       0.634166362946741       0.499818025985175     -0.0214040921451099
2        118.839699140404        116.001440541967        108.669068300333       -1.19150734968868        -1.0769500725356      -0.345669822977642
3        117.373356047371        115.958806166219        108.627865053454        5.45617462049637        5.28084185180009        1.02779904443594
4        114.531993881899        115.945873785885        108.617775842949        2.31536297625788        2.69080510683044       0.390879581970483
5        116.736880347616         114.78553003001        108.692659179846       -4.88324813109694       -5.02478465439464      -0.997218580785747
6         115.29323051835        114.766696136195        108.675257527483       -1.30891988523581       -1.29452113395344      -0.174235063454638
7         115.23055430008         117.18123464044        108.615066435052        4.12933864304063        4.45336725489677        1.11514555834374
8         116.71688122023        117.242745625391        108.675145178809       -3.64717623467462       -3.02177071150945      -0.880893964097257
9        114.524600358924        113.555289679342        108.663697438167      -0.981351019979651      -0.658055568893222      -0.055346328407687
10        117.423627974932        113.514475896086          108.6199284922        5.80074490523902        5.74386028611149        1.35141864720277
11        114.553463578779        118.461945679899        108.697454028006       -3.27127890569896       -4.85101634524032      -0.601176201796854
12        117.482465159009        118.451105862532        108.683659048353        -2.1942868799291       -1.55164307583515      0.0367658599216708
13        113.085226936132        113.520360263794        108.614769675897        5.15763241653366        5.77877964619573       0.977350796748444
14        113.155566972368        118.437672926529        108.689972164255      -0.959519663242238      -0.916123230782051       0.033626687470958
15        118.886166616542        113.603390683946        108.692052390374       -4.36617458467377       -4.67990227033595       -1.00852247521934
16        118.820493491718        118.384690190802        108.631241720222         2.8064978267166        1.98242838519166       0.536198965399155
17        112.424226344242        117.191750449743        108.654284506103        1.47245542723754        2.46039918415922       0.441166058254118
18        112.470208799712        114.812259556035        108.697833740972       -3.29874582393905       -3.66170959001755      -0.404980802192226
19        119.548011631906        114.779817547486        108.658244435213        3.47583170516889        3.32585970996962        1.01365768692818
20        119.578752529173        117.236031797104        108.691418554145       -2.11264397784149        -1.9497254268073      -0.146743064434294
21        120.999607260433        114.868907323631        108.701326237809       -6.65401606757543       -6.44163082866348       -1.03746224341194
22        120.992048364595         117.19754523192        108.696111002344       -3.20554868556509       -3.60356830039519      -0.755265133642852
23        111.068833473727        114.862666630058        108.705061800566       -8.70706848595735       -10.0187913475121       -1.80856395992745
24         111.01899871019        117.149028669318        108.657570697045        -3.7813663254278       -3.22169469287595      -0.766153806790094
25        121.555448366258        115.960718983636        108.625575905518        5.77089252668259        6.94171074376331       0.839030986791391
26        110.356139057776        115.950198461968        108.626302483304         4.8679377578601        4.16784795727859         1.0851904379651
27        121.637729674701        118.214455769803        108.685387628877        1.17633490155682        0.29039380541273        0.14694510902432
28        121.633900055818        113.818419338813        108.677151769118       0.694653783379289        1.10164643353002       0.355494452381912
29        110.312984294502        118.127795031071        108.610023543775        1.03099822107404        1.61211415609189         0.3442540919824
30        110.322677785722        113.745281712191        108.615310795462        6.23348365269168         6.4559868682286        1.21356472685064
31        112.630196106252        112.645784084102        108.687183284009        -1.8618968205394       -2.36550786248128     -0.0369094071124593
32        112.631682461639        119.389062282249         108.69543296104      -0.130748123795642      -0.117382492736011      0.0172497473754294
33        119.347667120241        112.589617321921        108.624207587289       0.643069950664703        1.36965265795111       0.343777385230762
34        119.328314044613        119.312056097859         108.61161783747       0.487104230155889        0.73366318272891      -0.040208172738365
35        114.994705268683        112.601379259696        108.689272695816      -0.138222008845134        -0.3819518481696      0.0346240337579683
36        114.942216309982        119.388513347441          108.6436452013         1.6388932866809        1.76059625698353       0.106241657831673
37        117.030330876641        112.583363862359         108.66919295262       -1.02778240722014       -1.69301195696609      -0.120327526425369
38        117.049355932626        119.442011965679        108.695079475095     -0.0944692509168452      -0.132978975395756     -0.0310969752053555
39                     100                     100              105.656854        0.21232462594136        0.21424928489725      -0.975704595360987
40                     100                     100              102.828427       0.431867566361112       0.430177348895547   -0.000416422697126001
41                     100                     100                     100       0.212264463670845       0.213649808792401       0.976400019613515
42                     102                     102              105.656854      -0.344728286982778      -0.348031802195849      -0.277960121757533
43                     102                     102              102.828427     -0.0506927365292599     -0.0479185852236838    0.000782613685721998
44                     102                     102                     100      -0.344639410172451      -0.346780322573534       0.276698904699225
45                     104                     100              105.656854      0.0958641831237586       0.960505264971627      -0.808962912478475
46                     104                     100              102.828427     -0.0638361158856039       0.726310719895884   -0.000345091988788018
47                     104                     100                     100      0.0962064805759154       0.959751616262241       0.809495950818571
48                     106                     102              105.656854      -0.149161065873808      -0.515627444898029      -0.381450354000347
49                     106                     102              102.828427       0.142252676253457      0.0671332977531219    0.000531874895903091
50                     106                     102                     100      -0.150137210471608      -0.514185473582295       0.380683169376841
51                     108                     100              105.656854       0.109444234157418        1.06056065972696      -0.801943765922327
52                     108                     100              102.828427      -0.111450688467377       0.639452794934192     0.00017420815885927
53                     108                     100                     100       0.110519575446553        1.06035802044139       0.801574736037874
54                     110                     102              105.656854      -0.142827420153974      -0.582517105982427      -0.373793420882966
55                     110                     102              102.828427       0.147659948048905       0.135344608998505   -0.000813294371984757
56                     110                     102                     100      -0.145320352730389      -0.582988419131419       0.375262971148598
57                     112                     100              105.656854       0.131409829136865        1.10873215447461      -0.810744583558466
58                     112                     100              102.828427      -0.135231895426244       0.589159831376152     0.00112251193281654
59                     112                     100                     100       0.132652852436092        1.11008922774344       0.808804351154305
60                     114                     102              105.656854      -0.163357096855598      -0.619028047845191      -0.361254389433849
61                     114                     102              102.828427       0.168366013135263        0.17506642652019    -0.00259574614144999
62                     114                     102                     100      -0.164990617173388      -0.622879196499722       0.365600253492008
63                     116                     100              105.656854       0.166336908605423        1.14398461244561      -0.821327727710624
64                     116                     100              102.828427       -0.17054547196596       0.552169894807299     0.00168285649750947
65                     116                     100                     100       0.166402228236102        1.14637344755017       0.818476930108938
66                     118                     102              105.656854      -0.209239147655687       -0.65091157556931      -0.347786234083693
67                     118                     102              102.828427       0.214113742595706       0.208070749412222    -0.00268839715718647
68                     118                     102                     100      -0.207827763012251      -0.654916418645698       0.352265611024074
69                     120                     100              105.656854       0.223082416142992        1.18247080700758      -0.835341018534509
70                     120                     100              102.828427      -0.228502610254551       0.512938445502926      0.0012123861272441
71                     120                     100                     100       0.221930141133221        1.18396515765418       0.833263219544992
72                     122                     102              105.656854      -0.288682280016396      -0.687975832300866      -0.330185921780314
73                     122                     102              102.828427       0.293455084676241       0.244351394990532    -0.00102702721039259
74                     122                     102                     100      -0.286265522398564      -0.688785281571981       0.331970934454226
75                     124                     100              105.656854       0.326290828436832        1.23672329575669      -0.852180107501702
76                     124                     100              102.828427      -0.322921330302555        0.45947594800024    0.000301869373066297
77                     124                     100                     100       0.325225240274187         1.2367004918234       0.851610547880158
78                     126                     102              105.656854       -0.46162823550882      -0.727749963647849      -0.331950154698576
79                     126                     102              102.828427       0.397157470819202       0.281754828700401    0.000321682118503958
80                     126                     102                     100      -0.460589230176563      -0.726597654541018       0.331506149597718
81                     128                     100              105.656854       0.708211303315133        1.34074034888593      -0.754792560100498
82                     128                     100              102.828427      -0.280862322475079       0.396052862963332   -0.000233693395795492
83                     128                     100                     100       0.707828564073711        1.34012069611184       0.755144236089977
84                     130                     102              105.656854       -1.34053997154337      -0.708756741347024      -0.755362032308157
85                     130                     102              102.828427      -0.395922965269802       0.281035744312624    0.000639460411874013
86                     130                     102                     100       -1.34053861281513       -0.70766212911844       0.754331776730473
87                     100                     104              105.656854       0.959464524385015       0.100431479301962      -0.808433711968541
88                     100                     104              102.828427        0.72735078373155     -0.0675700213194774    -0.00115503478842234
89                     100                     104                     100       0.958779844624442      0.0989838396095193       0.810323902616086
90                     102                     106              105.656854      -0.514460635821446      -0.157805361487481      -0.382842638626264
91                     102                     106              102.828427      0.0657416808398111        0.14873939960872     0.00243269751000788
92                     102                     106                     100      -0.512797902478522      -0.154489671107612       0.378987739677184
93                     104                     104              105.656854       0.247545084874722       0.253723053773666      -0.388474974216095
94                     104                     104              102.828427      -0.180240803830626      -0.185063541105978    -0.00155643442453357
95                     104                     104                     100       0.247494648237171       0.250897205315712        0.39089546140366
96                     106                     106              105.656854      -0.233657495977392      -0.246643178619099      -0.504918914160294
97                     106                     106              102.828427       0.225562630752162       0.234467691331445      0.0032283607413533
98                     106                     106                     100      -0.234245083560428      -0.239725004475046       0.499919755001747
99                     108                     104              105.656854       0.172902079331467       0.339816405739525      -0.375170227910127
100                     108                     104              102.828427      -0.176981986871133      -0.269620375536205   -0.000617834421251952
101                     108                     104                     100       0.175938113024197       0.337243893874316       0.375958631451149
102                     110                     106              105.656854      -0.180522426215106      -0.295030351817963      -0.490271605671134
103                     110                     106              102.828427       0.191277722877656       0.286751696596025   -0.000445931655839956
104                     110                     106                     100      -0.190368168235013      -0.292356400910866       0.491348465630376
105                     112                     104              105.656854       0.165945950772292       0.379996905393635      -0.391004663997054
106                     112                     104              102.828427      -0.173394022695935      -0.314985505986257     0.00287898439223499
107                     112                     104                     100       0.171260339565864       0.383753061489974       0.386097117702992
108                     114                     106              105.656854      -0.186365113743934      -0.307656487534005      -0.466550759657922
109                     114                     106              102.828427       0.196310177377654       0.311973302872472    -0.00844812713976968
110                     114                     106                     100      -0.194420995192504      -0.322474585327907       0.481318522810743
111                     116                     104              105.656854        0.19760155799331       0.404982054236974      -0.406682212042263
112                     116                     104              102.828427      -0.202918206023321      -0.344106068042097     0.00536993015724401
113                     116                     104                     100       0.197842138009935       0.413957397124267       0.397779928505385
114                     118                     106              105.656854      -0.241075412154775      -0.328868885143846      -0.450406815751394
115                     118                     106              102.828427       0.243187975977389       0.334312113410008    -0.00882528326213006
116                     118                     106                     100      -0.233908770039077      -0.344399844187376       0.465691882765656
117                     120                     104              105.656854       0.260656542393674       0.435685714759535       -0.42188088252889
118                     120                     104              102.828427      -0.264913740005376      -0.372815815187947     0.00320912868303399
119                     120                     104                     100        0.25563996712953       0.440019013545561       0.416515263983136
120                     122                     106              105.656854      -0.319191263089726      -0.362885857186624      -0.438005180147214
121                     122                     106              102.828427       0.320164507126934       0.357748769209442    -0.00126331077512937
122                     122                     106                     100      -0.309491344501966      -0.361699706990169        0.44022069676516
123                     124                     104              105.656854       0.368257385643569        0.46393602414342      -0.438671089511458
124                     124                     104              102.828427      -0.362562470263324      -0.397966459292076   -0.000202315365973511
125                     124                     104                     100       0.365159079806304       0.462023024526988       0.438860283356329
126                     126                     106              105.656854      -0.466085052680268       -0.36941602548204      -0.441518475077019
127                     126                     106              102.828427       0.401047225066168       0.361666736882428       0.002579345339669
128                     126                     106                     100      -0.465071615930981      -0.363451796434264       0.437452059005773
129                     128                     104              105.656854       0.727924003548076       0.462435652786084      -0.330723844393986
130                     128                     104              102.828427       -0.28256609180937      -0.397124270704411    -0.00126453861257959
131                     128                     104                     100       0.727781730499284       0.459976995023509       0.332700660662434
132                     130                     106              105.656854        -1.2365000422062      -0.328360837447679      -0.853561307185665
133                     130                     106              102.828427      -0.458863178936098       0.323920039994764      0.0021013823839107
134                     130                     106                     100       -1.23784034278672      -0.325385956727626       0.850209764967938
135                     100                     108              105.656854        1.06378234554395       0.117095395937442      -0.799911843235055
136                     100                     108              102.828427        0.63759865389227       -0.11727792968613    -0.00271145746829559
137                     100                     108                     100        1.06105388779026       0.114480319318811       0.804265737130149
138                     102                     110              105.656854      -0.591471584699963      -0.156358069025636      -0.379340580499078
139                     102                     110              102.828427       0.139740948884884       0.156823983134185     0.00593292122711746
140                     102                     110                     100      -0.584361777730823      -0.150796159565473       0.369951197507533
141                     104                     108              105.656854       0.339594123990168       0.190972010846179      -0.370755491279189
142                     104                     108              102.828427      -0.267875175873564      -0.188655578667851    -0.00553687591403267
143                     104                     108                     100       0.335172109444408       0.182661079617033       0.379522222972753
144                     106                     110              105.656854      -0.301212314277899      -0.222033950139357      -0.508092451241657
145                     106                     110              102.828427       0.284443517319548       0.211736183648671      0.0131283494453632
146                     106                     110                     100      -0.288932489970205      -0.199911005736827       0.484112953271346
147                     108                     108              105.656854        0.22242288558886       0.254395705861375      -0.357603615214407
148                     108                     108              102.828427      -0.228959317572207      -0.246012420762932     -0.0063769814289834
149                     108                     108                     100       0.227947593893326       0.236524170268286       0.369127573404945
150                     110                     110              105.656854       -0.17858555957812      -0.264923471551027      -0.495441372699082
151                     110                     110              102.828427       0.214999878384308       0.245150306075355     0.00786250730175866
152                     110                     110                     100      -0.221208842511083      -0.233082441065431       0.473744332843405
153                     112                     108              105.656854       0.173222539575767       0.259369793759606      -0.392770758697106
154                     112                     108              102.828427      -0.196727859533568      -0.270589857522283      0.0071113709595611
155                     112                     108                     100        0.20051139515848       0.267789284946596       0.378782581951977
156                     114                     110              105.656854      -0.173628827922721      -0.186717567104835      -0.386156018158261
157                     114                     110              102.828427       0.206831011876792       0.246948236505358     -0.0258122535651555
158                     114                     110                     100      -0.212372809198785      -0.249434419824249       0.469222233205593
159                     116                     108              105.656854       0.218522768955017        0.25028387661926      -0.426123146820164
160                     116                     108              102.828427      -0.225034612980298      -0.282025369053057      0.0190851141550533
161                     116                     108                     100       0.219566225788488       0.286155335348897       0.389094802063213
162                     118                     110              105.656854      -0.283673003191146      -0.195158248255957      -0.366077472171277
163                     118                     110              102.828427       0.265852268324779       0.257658634243438     -0.0271068588136274
164                     118                     110                     100      -0.248905484755464      -0.260178569946335       0.452489325964152
165                     120                     108              105.656854        0.29971331422735       0.289626284842799       -0.42890195372489
166                     120                     108              102.828427      -0.290045827955462      -0.303861108648233     0.00847660792539116
167                     120                     108                     100        0.27365765576625       0.300831692951932       0.412766309098765
168                     122                     110              105.656854       -0.35739324267779      -0.291167193252377      -0.433842791132419
169                     122                     110              102.828427       0.333812010014531        0.27777481687867      0.0047572440505593
170                     122                     110                     100      -0.314946720475384      -0.265952089161998        0.41881049364754
171                     124                     108              105.656854       0.375223177459074       0.320579885580247      -0.431168404597317
172                     124                     108              102.828427      -0.368157528771757      -0.316237439380879     -0.0048605712127233
173                     124                     108                     100        0.36886678579573       0.305423075657498       0.440420290580707
174                     126                     110              105.656854      -0.437044325840271      -0.274883864323048      -0.435046095784118
175                     126                     110              102.828427       0.380290755537544       0.268073444973425      0.0112208677107177
176                     126                     110                     100      -0.446807951754614      -0.255244627829588       0.414041082236743
177                     128                     108              105.656854       0.688096688617359       0.293714817375447      -0.326430142873812
178                     128                     108              102.828427      -0.246610107860223      -0.295268060223864    -0.00477057237889046
179                     128                     108                     100       0.691662759172181       0.286287153996521       0.334088344694409
180                     130                     110              105.656854        -1.1793970549119      -0.227949177444899      -0.839019409083616
181                     130                     110              102.828427      -0.512927100036223       0.231043395375271     0.00526147967063459
182                     130                     110                     100       -1.18557607986183      -0.222862848052284       0.830606947501216
183                     100                     112              105.656854        1.11963401988519       0.138259863998672      -0.806331830750585
184                     100                     112              102.828427        0.58245073878282      -0.140205939057064    -0.00479295042573766
185                     100                     112                     100        1.11335513109797       0.135838313475115        0.81395579002689
186                     102                     114              105.656854      -0.641292932214764      -0.170279315812589      -0.371793411759083
187                     102                     114              102.828427       0.186523457951073       0.172901549548555     0.00946472892488125
188                     102                     114                     100      -0.627362161005145      -0.167584167968939       0.356707655842758
189                     104                     112              105.656854       0.404941750738801       0.188422557620631      -0.373702874971606
190                     104                     112              102.828427      -0.323995461266417      -0.186128008781929     -0.0132645471250375
191                     104                     112                     100       0.385661598143903       0.177739570569632       0.396153234722183
192                     106                     114              105.656854      -0.363382872025091      -0.208568472234228      -0.520985770611819
193                     106                     114              102.828427       0.324219683265221       0.207688224105948      0.0264166192854265
194                     106                     114                     100      -0.323177251687997      -0.199498238942719       0.464867849055165
195                     108                     112              105.656854       0.290437529389603       0.263868997765035      -0.298513499368287
196                     108                     112              102.828427      -0.263422808595103      -0.224692931261883     -0.0260083762339666
197                     108                     112                     100       0.261470105369909       0.211279249142821       0.391222591997557
198                     110                     114              105.656854      -0.146001662501438      -0.187518389517713      -0.765842760333876
199                     110                     114              102.828427       0.222243606905327       0.225268716410256      0.0218914012132895
200                     110                     114                     100      -0.238869033699484      -0.219715321959397       0.454444723463615
201                     112                     112              105.656854      0.0859423136107844        0.23346000602849       -0.42018584034646