ITEM: TIMESTEP
0
ITEM: NUMBER OF ATOMS
422
ITEM: BOX BOUNDS ff ff ff
0.0000000000000000e+00 2.3200000000000000e+02
0.0000000000000000e+00 2.3200000000000000e+02
0.0000000000000000e+00 2.3200000000000000e+02
ITEM: ATOMS id xu yu zu fx fy fz
1        113.132713979183        115.970302601021        108.643635785344        0.57811582041282        3.10796860800477     -0.0429603137966142
2         118.85299374738        116.014735148944        108.682362907309       -3.55091998972032       -4.37086838263838     -0.0182647465225788
3        117.394321396802         115.97977151565        108.648830402885       0.783938537230752       -1.73012502000945     -0.0245324386074592
4        114.523739111882        115.937619015869        108.609521072933        3.60866614184176        5.57064806000973       0.508574482229912
5        116.662308995574        114.710958677969        108.618087827805        3.56854966828852        1.82937644942663      0.0283376531243698
6        115.315654787156        114.789120405001        108.697681796289        -5.1378651256621       -4.80284626647328      -0.355407736541962
7        115.322195750984        117.272876091344        108.706707885957       -5.69464403878098       -5.04511145637306      -0.392767718857779
8        116.663680373812        117.189544778973         108.62194433239        2.46228137727791      -0.537949697247598     -0.0640260104380844
9        114.470571146514        113.501260466932        108.609668225757        4.92882866968545        6.21323578294123        0.24166559808133
10        117.445668468024        113.536516389179        108.641968985293      -0.201780060448648        3.08003743511247      -0.123533576245069
11        114.533970072446        118.442452173566        108.677960521673       -2.32787921877576       -3.14853130596047      0.0710417831267837
12        117.407445101008        118.376085804531        108.608638990352       0.327975820529313      -0.706644192907026      0.0130030164383216
13        113.139294448967        113.574427776629        108.668837188732        -3.0759495918056      -0.187200222159992      0.0602273002175595
14        113.102030949406        118.384136903566        108.636436141292        3.01759765846922        1.62369854765225     0.00536448261038875
15        118.816953873382        113.534177940786        108.622839647214       0.268530931016416       0.947187277607944     -0.0442436297836071
16        118.806274345291        118.370471044375        108.617022573795        1.55243296066156         2.6286072724044       0.267767966463383
17        112.450889134282        117.218413239783        108.680947296143       -2.88487588323772       -3.21340245251621     -0.0662085122023734
18        112.471498998646         114.81354975497        108.699123939907       -3.06581839237609       -2.59308781032832      -0.018577391293007
19        119.510523683297        114.742329598876        108.620756486604        1.12414534834695        1.57802972997023       0.142010154179374
20        119.497511804922        117.154791072854        108.610177829894        5.42321945672522         3.1390522903074      0.0937850618919575
21        120.947479203353        114.816779266551        108.649198180729      -0.274487784851176        3.21605392013481      0.0745504308264136
22        120.985802364282        117.191299231607        108.689865002031       -3.55926938566854     -0.0633270015763868      -0.232802768302256
23        111.025368384047        114.819201540379        108.661596710886        2.31897346830817         1.6020712049194      0.0895822074050179
24         111.00291035007        117.132940309198        108.641482336925        3.82224318535008        2.29106685091433     0.00528517266615889
25        121.620768846863        116.026039464241        108.690896386123        -2.3889646450285       -2.82005652174295        -0.1235288059898
26        110.412779050903        116.006838455096        108.682942476431      -0.407177747702536       -3.20469667806987      0.0509534004504514
27        121.649964585602        118.226690680705        108.697622539778      -0.506483426333751      -0.789579099655999     -0.0059158202196258
28        121.602180033305        113.786699316299        108.645431746605      -0.141663895120711       0.222888274097861    0.000814979459829269
29        110.343668456908        118.158479193476         108.64070770618      0.0901185591726767      -0.140191464749496    0.000105892248842493
30        110.375614591583        113.798218518052        108.668247601323      -0.247658528950608      -0.389155332874629     0.00253503674911459
31        112.578651110355        112.594239088206        108.635638288112       0.742611177732553        1.29832823504491      0.0439742577685854
32        112.567911969971        119.325291790581        108.631662469372       0.011409902518459     -0.0201050438742481    0.000101975652176516
33        119.419305796504        112.661255998184        108.695846263553       0.322011705893177      -0.466655908379971      0.0390286544562539
34        119.420358277844         119.40410033109        108.703662070701       -1.95806282151306        -3.2958215811487      -0.276257965360201
35        114.974265731301        112.580939722313        108.668833158434       0.454842538616959      -0.831061195548391      0.0534266775716587
36         114.92635383085        119.372650868309        108.627782722168       0.849589080354338        2.01406566068753      -0.108644941648173
37        117.052595969313        112.605628955031        108.691458045292      -0.839904355469229       -1.98908957751213        0.10574659172954
38        116.975330863523        119.367986896577        108.621054405992     0.00732288301301693     -0.0168093874893483   -0.000210399538834016
39                     100                     100              105.656854                       0                       0                       0
40                     100                     100              102.828427                       0                       0                       0
41                     100                     100                     100                       0                       0                       0
42                     102                     102              105.656854                       0                       0                       0
43                     102                     102              102.828427                       0                       0                       0
44                     102                     102                     100                       0                       0                       0
45                     104                     100              105.656854                       0                       0                       0
46                     104                     100              102.828427                       0                       0                       0
47                     104                     100                     100                       0                       0                       0
48                     106                     102              105.656854                       0                       0                       0
49                     106                     102              102.828427                       0                       0                       0
50                     106                     102                     100                       0                       0                       0
51                     108                     100              105.656854                       0                       0                       0
52                     108                     100              102.828427                       0                       0                       0
53                     108                     100                     100                       0                       0                       0
54                     110                     102              105.656854                       0                       0                       0
55                     110                     102              102.828427                       0                       0                       0
56                     110                     102                     100                       0                       0                       0
57                     112                     100              105.656854                       0                       0                       0
58                     112                     100              102.828427                       0                       0                       0
59                     112                     100                     100                       0                       0                       0
60                     114                     102              105.656854                       0                       0                       0
61                     114                     102              102.828427                       0                       0                       0
62                     114                     102                     100                       0                       0                       0
63                     116                     100              105.656854                       0                       0                       0
64                     116                     100              102.828427                       0                       0                       0
65                     116                     100                     100                       0                       0                       0
66                     118                     102              105.656854                       0                       0                       0
67                     118                     102              102.828427                       0                       0                       0
68                     118                     102                     100                       0                       0                       0
69                     120                     100              105.656854                       0                       0                       0
70                     120                     100              102.828427                       0                       0                       0
71                     120                     100                     100                       0                       0                       0
72                     122                     102              105.656854                       0                       0                       0
73                     122                     102              102.828427                       0                       0                       0
74                     122                     102                     100                       0                       0                       0
75                     124                     100              105.656854                       0                       0                       0
76                     124                     100              102.828427                       0                       0                       0
77                     124                     100                     100                       0                       0                       0
78                     126                     102              105.656854                       0                       0                       0
79                     126                     102              102.828427                       0                       0                       0
80                     126                     102                     100                       0                       0                       0
81                     128                     100              105.656854                       0                       0                       0
82                     128                     100              102.828427                       0                       0                       0
83                     128                     100                     100                       0                       0                       0
84                     130                     102              105.656854                       0                       0                       0
85                     130                     102              102.828427                       0                       0                       0
86                     130                     102                     100                       0                       0                       0
87                     100                     104              105.656854                       0                       0                       0
88                     100                     104              102.828427                       0                       0                       0
89                     100                     104                     100                       0                       0                       0
90                     102                     106              105.656854                       0                       0                       0
91                     102                     106              102.828427                       0                       0                       0
92                     102                     106                     100                       0                       0                       0
93                     104                     104              105.656854                       0                       0                       0
94                     104                     104              102.828427                       0                       0                       0
95                     104                     104                     100                       0                       0                       0
96                     106                     106              105.656854                       0                       0                       0
97                     106                     106              102.828427                       0                       0                       0
98                     106                     106                     100                       0                       0                       0
99                     108                     104              105.656854                       0                       0                       0
100                     108                     104              102.828427                       0                       0                       0
101                     108                     104                     100                       0                       0                       0
102                     110                     106              105.656854                       0                       0                       0
103                     110                     106              102.828427                       0                       0                       0
104                     110                     106                     100                       0                       0                       0
105                     112                     104              105.656854                       0                       0                       0
106                     112                     104              102.828427                       0                       0                       0
107                     112                     104                     100                       0                       0                       0
108                     114                     106              105.656854                       0                       0                       0
109                     114                     106              102.828427                       0                       0                       0
110                     114                     106                     100                       0                       0                       0
111                     116                     104              105.656854                       0                       0                       0
112                     116                     104              102.828427                       0                       0                       0
113                     116                     104                     100                       0                       0                       0
114                     118                     106              105.656854                       0                       0                       0
115                     118                     106              102.828427                       0                       0                       0
116                     118                     106                     100                       0                       0                       0
117                     120                     104              105.656854                       0                       0                       0
118                     120                     104              102.828427                       0                       0                       0
119                     120                     104                     100                       0                       0                       0
120                     122                     106              105.656854                       0                       0                       0
121                     122                     106              102.828427                       0                       0                       0
122                     122                     106                     100                       0                       0                       0
123                     124                     104              105.656854                       0                       0                       0
124                     124                     104              102.828427                       0                       0                       0
125                     124                     104                     100                       0                       0                       0
126                     126                     106              105.656854                       0                       0                       0
127                     126                     106              102.828427                       0                       0                       0
128                     126                     106                     100                       0                       0                       0
129                     128                     104              105.656854                       0                       0                       0
130                     128                     104              102.828427                       0                       0                       0
131                     128                     104                     100                       0                       0                       0
132                     130                     106              105.656854                       0                       0                       0
133                     130                     106              102.828427                       0                       0                       0
134                     130                     106                     100                       0                       0                       0
135                     100                     108              105.656854                       0                       0                       0
136                     100                     108              102.828427                       0                       0                       0
137                     100                     108                     100                       0                       0                       0
138                     102                     110              105.656854                       0                       0                       0
139                     102                     110              102.828427                       0                       0                       0
140                     102                     110                     100                       0                       0                       0
141                     104                     108              105.656854                       0                       0                       0
142                     104                     108              102.828427                       0                       0                       0
143                     104                     108                     100                       0                       0                       0
144                     106                     110              105.656854                       0                       0                       0
145                     106                     110              102.828427                       0                       0                       0
146                     106                     110                     100                       0                       0                       0
147                     108                     108              105.656854                       0                       0                       0
148                     108                     108              102.828427                       0                       0                       0
149                     108                     108                     100                       0                       0                       0
150                     110                     110              105.656854                       0                       0                       0
151                     110                     110              102.828427                       0                       0                       0
152                     110                     110                     100                       0                       0                       0
153                     112                     108              105.656854                       0                       0                       0
154                     112                     108              102.828427                       0                       0                       0
155                     112                     108                     100                       0                       0                       0
156                     114                     110              105.656854                       0                       0                       0
157                     114                     110              102.828427                       0                       0                       0
158                     114                     110                     100                       0                       0                       0
159                     116                     108              105.656854                       0                       0                       0
160                     116                     108              102.828427                       0                       0                       0
161                     116                     108                     100                       0                       0                       0
162                     118                     110              105.656854                       0                       0                       0
163                     118                     110              102.828427                       0                       0                       0
164                     118                     110                     100                       0                       0                       0
165                     120                     108              105.656854                       0                       0                       0
166                     120                     108              102.828427                       0                       0                       0
167                     120                     108                     100                       0                       0                       0
168                     122                     110              105.656854                       0                       0                       0
169                     122                     110              102.828427                       0                       0                       0
170                     122                     110                     100                       0                       0                       0
171                     124                     108              105.656854                       0                       0                       0
172                     124                     108              102.828427                       0                       0                       0
173                     124                     108                     100                       0                       0                       0
174                     126                     110              105.656854                       0                       0                       0
175                     126                     110              102.828427                       0                       0                       0
176                     126                     110                     100                       0                       0                       0
177                     128                     108              105.656854                       0                       0                       0
178                     128                     108              102.828427                       0                       0                       0
179                     128                     108                     100                       0                       0                       0
180                     130                     110              105.656854                       0                       0                       0
181                     130                     110              102.828427                       0                       0                       0
182                     130                     110                     100                       0                       0                       0
183                     100                     112              105.656854                       0                       0                       0
184                     100                     112              102.828427                       0                       0                       0
185                     100                     112                     100                       0                       0                       0
186                     102                     114              105.656854                       0                       0                       0
187                     102                     114              102.828427                       0                       0                       0
188                     102                     114                     100                       0                       0                       0
189                     104                     112              105.656854                       0                       0                       0
190                     104                     112              102.828427                       0                       0                       0
191                     104                     112                     100                       0                       0                       0
192                     106                     114              105.656854                       0                       0                       0
193                     106                     114              102.828427                       0                       0                       0
194                     106                     114                     100                       0                       0                       0
195                     108                     112              105.656854                       0                       0                       0
196                     108                     112              102.828427                       0                       0                       0
197                     108                     112                     100                       0                       0                       0
198                     110                     114              105.656854                       0                       0                       0
199                     110                     114              102.828427                       0                       0                       0
200                     110                     114                     100                       0                       0                       0
201                     112                     112              105.656854                       0                       0                       0