ITEM: TIMESTEP
0
ITEM: NUMBER OF ATOMS
422
ITEM: BOX BOUNDS pp pp pp
0.0000000000000000e+00 3.2000000000000000e+01
0.0000000000000000e+00 3.2000000000000000e+01
0.0000000000000000e+00 3.2000000000000000e+01
ITEM: ATOMS id xu yu zu fx fy fz
1        11.7459321938386        15.9835208156773                 8.65685     0.00156651594283072    0.000127138278220471    -0.00382771083029361
2        17.4274848400711        15.9892262416344                 8.65685    -0.00532478246551113    0.000462990808907687      0.0131870164063577
3         16.002344993917         15.987795112765                 8.65685   -1.42751803561825e-05    7.44939240536896e-05    -0.00441510862786763
4         13.171072038949        15.9849519429358                 8.65685    -0.00594342830926842    0.000514546020321374     0.00833656148333584
5        15.3010751677692        14.7497248501637                 8.65685       0.023490607937055      0.0141348165086613      0.0393594052504438
6        13.8748269908674        14.7482926087119                 8.65685    -0.00673409963064037      0.0403077500938909       0.137390169557114
7        13.8723418650276        17.2230222053877                 8.65685    -0.00667874033231863     -0.0406917715275517       0.133152133983553
8        15.2985900414216        17.2244544465825                 8.65685      0.0229733441123245     -0.0143089760837381      0.0382968002622127
9        13.1177569207574        13.5484462411751                 8.65685     -0.0367485253494002     -0.0188296475236228       0.102833414823459
10        16.0605534827313        13.5514014038861                 8.65685    -0.00281626072791213    -0.00461417843451935      0.0155202964004914
11        13.1128635507729         18.421345651893                 8.65685     -0.0373618624992344      0.0177654612414324       0.104156134988518
12        16.0556601106552        18.4243008141789                 8.65685    -0.00262349629639208     0.00442353364066923      0.0158422330202718
13        11.7273112602357        13.5624445878976                 8.65685      0.0126174710322957    -0.00543220028178223      0.0212925875070629
14        11.7224488081137        18.4045547622743                 8.65685      0.0130615424095742     0.00515131489564139      0.0220957607448984
15         17.450968226168        13.5681922935721                 8.65685     -0.0312594792309154     -0.0245742083995147        0.14614872524132
16        17.4461057714963        18.4103024705805                 8.65685     -0.0317912418393076      0.0235366651850259       0.147464019881337
17         11.026795838139        17.1943199436399                 8.65685      0.0270493759875003     -0.0213390510605217      0.0603052648722295
18        11.0292290587396        14.7712798150634                 8.65685      0.0279665258250542      0.0210796740946962      0.0626160280625537
19        18.1466211966922        14.7784271122721                 8.65685     0.00763521845133933      0.0405766898234481       0.132452181665153
20        18.1441879750283        17.2014672429596                 8.65685     0.00736361152292408     -0.0408129376092934        0.12957994770557
21        19.5551350226241        14.8244350858224                 8.65685      0.0147863411593772     0.00947597765897616      0.0197105300569004
22        19.5527913622507        17.1582882295758                 8.65685       0.014587234709586    -0.00952444562822774       0.019275745406964
23        9.62062567316109        14.8144588294926                 8.65685     -0.0176538324631891      0.0379054466122576       0.116572029355314
24        9.61828201314539        17.1483119722736                 8.65685     -0.0170653136824781     -0.0380612137803052       0.111379142415092
25        20.1867264607395        15.9919970781177                 8.65685   -0.000338983587175075    1.74305631847187e-05    -0.00992318398230521
26         8.9866905744716        15.9807499786644                 8.65685    -0.00190237651022751    0.000206234340094494    -0.00648678216756364
27         20.209196045824        18.1859221409264                 8.65685    -0.00434760240076684    0.000874744953931333    0.000496867995035341
28        20.2136022867001        13.7981215696947                 8.65685      -0.004420407526807   -0.000950318157642662    0.000510960041249933
29        8.95981475072747        18.1746254872963                 8.65685     -0.0163034894096219     0.00271713247218257       0.030888093386832
30        8.96422099026049        13.7868249167297                 8.65685      -0.016175906361551    -0.00330489247464129      0.0307195224572244
31        11.1998668222426        12.6154548000933                 8.65685    0.000768156910629397   -0.000970909550421856    -0.00849710049114529
32        11.1931035005993        19.3504833212092                 8.65685    0.000853783896913252     0.00103877457804743    -0.00830648319893461
33        17.9803135329519        12.6222637346313                 8.65685   -4.09560056197435e-05    -0.00323481774756059     -0.0040683981968761
34        17.9735502071424         19.357292260389                 8.65685   -5.76571743352433e-05     0.00332646844625814     -0.0037936729587496
35        13.5622865728669        12.5689605638796                 8.65685   -0.000690630646470011    -0.00259035935378112    -0.00554941837837943
36         13.555425108682        19.4017221461408                 8.65685   -0.000749827489563926     0.00269848469642009    -0.00525134150102487
37        15.6179919240215        12.5710249097393                 8.65685     0.00029625212029589   -0.000197628199265962    -0.00983713571617229
38         15.611130457531        19.4037864905846                 8.65685    0.000332211988845532    0.000219311972227493     -0.0097817281442081
39                       0                       0                5.656854                       0                       0                       0
40                       0                       0                2.828427                       0                       0                       0
41                       0                       0                       0                       0                       0                       0
42                       2                       2                5.656854    2.10454999491904e-09    3.23071244386221e-09    8.42212118597621e-10
43                       2                       2                2.828427    6.77141387117828e-11    1.14605021652692e-10    5.66706088225645e-11
44                       2                       2                       0                       0                       0                       0
45                       4                       0                5.656854    1.63061542073293e-10    8.49095975630445e-12    8.35937700206072e-11
46                       4                       0                2.828427                       0                       0                       0
47                       4                       0                       0                       0                       0                       0
48                       6                       2                5.656854    3.48787171000316e-08    8.57164741682181e-08    2.23339447504458e-08
49                       6                       2                2.828427    1.38642076926456e-09    3.39286738776975e-09    1.71611812772687e-09
50                       6                       2                       0    3.74294155411088e-10    1.05999709946823e-09    8.15142625411088e-10
51                       8                       0                5.656854    1.08056314528252e-09     9.4746034692868e-11    9.55033278793882e-10
52                       8                       0                2.828427    8.36746945200354e-10    6.81949000595655e-10    1.47844626202324e-09
53                       8                       0                       0                       0                       0                       0
54                      10                       2                5.656854    8.52515140496231e-08    4.68249975683921e-07    1.24602100566527e-07
55                      10                       2                2.828427    3.13083472426613e-09    1.67645467480332e-08    8.64949573021743e-09
56                      10                       2                       0    1.30714125094203e-09    7.34370984798056e-09     5.7099322900674e-09
57                      12                       0                5.656854    1.09737868310566e-09    2.64711100673408e-10    2.85819101098114e-09
58                      12                       0                2.828427    8.71200950876431e-10    2.91102189761632e-10    6.36667752565245e-09
59                      12                       0                       0                       0                       0                       0
60                      14                       2                5.656854    1.42515963621043e-08     8.0140584600519e-07    2.15547746233443e-07
61                      14                       2                2.828427    4.68096083260726e-10    2.79015477314226e-08    1.45270473164834e-08
62                      14                       2                       0    3.27180438300398e-10    1.27007466836313e-08    9.92954924889452e-09
63                      16                       0                5.656854   -6.15743419427628e-10    2.57813357297168e-10    3.20295993040595e-09
64                      16                       0                2.828427   -2.55339174343134e-10     2.6352461191966e-10    7.10919323876889e-09
65                      16                       0                       0                       0                       0                       0
66                      18                       2                5.656854   -7.54266311520274e-08    6.04473443895227e-07    1.61691785545298e-07
67                      18                       2                2.828427   -2.73573290777757e-09    2.13202641623523e-08    1.10432504827406e-08
68                      18                       2                       0    -9.1016871659242e-10    8.90134531200566e-09    6.94445703394982e-09
69                      20                       0                5.656854   -1.29526550657278e-09     1.0407147796078e-10    1.47111325303995e-09
70                      20                       0                2.828427   -1.06366701907097e-09    1.16594654149169e-09    2.85663831091015e-09
71                      20                       0                       0                       0                       0                       0
72                      22                       2                5.656854   -5.40380594145667e-08    1.59290025676347e-07    4.17919221889289e-08
73                      22                       2                2.828427   -2.03041404753141e-09    6.01066207460218e-09    3.06267706536997e-09
74                      22                       2                       0   -4.28471432390399e-10    1.61612035506629e-09    1.25157848586773e-09
75                      24                       0                5.656854   -2.63348953223971e-10    9.86707217272736e-12    1.63306846394987e-10
76                      24                       0                2.828427                       0                       0                       0
77                      24                       0                       0                       0                       0                       0
78                      26                       2                5.656854   -6.48439063218856e-09      1.124709741789e-08    2.89453507003203e-09
79                      26                       2                2.828427    -1.9696670840311e-10    3.49526070252952e-10    1.77950336255779e-10
80                      26                       2                       0                       0                       0                       0
81                      28                       0                5.656854                       0                       0                       0
82                      28                       0                2.828427                       0                       0                       0
83                      28                       0                       0                       0                       0                       0
84                      30                       2                5.656854                       0                       0                       0
85                      30                       2                2.828427                       0                       0                       0
86                      30                       2                       0                       0                       0                       0
87                       0                       4                5.656854    9.47149971598951e-10    1.00262772802019e-09     3.0492526580036e-10
88                       0                       4                2.828427    9.02650726830935e-10    9.85482691028179e-10    5.86892074943733e-10
89                       0                       4                       0                       0                       0                       0
90                       2                       6                5.656854    3.98123635178264e-07    4.21636590874797e-07    1.57656061267656e-07
91                       2                       6                2.828427    1.34467324177376e-08    1.41313653504403e-08    1.02531875840263e-08
92                       2                       6                       0     5.3626740853294e-09    5.86417700686181e-09     6.3089994308871e-09
93                       4                       4                5.656854    3.11895733056801e-08    5.05315236627992e-08    1.54881703129977e-08
94                       4                       4                2.828427    3.58104961362298e-08    5.75887726559758e-08    3.42997562614265e-08
95                       4                       4                       0    3.96926915021679e-10    6.90380541412362e-10     6.1340747539443e-10
96                       6                       6                5.656854    7.80741031525877e-06    1.43180054795531e-05    5.54633220297086e-06
97                       6                       6                2.828427    1.93852977460532e-07    3.49010352485078e-07    2.60258294033925e-07
98                       6                       6                       0    6.81597472828549e-08    1.20882796581479e-07    1.32946205047012e-07
99                       8                       4                5.656854    2.07984353750574e-07    6.29007843821288e-07    1.99595902902793e-07
100                       8                       4                2.828427    1.99959042551872e-07    5.97913017236188e-07    3.65686861726431e-07
101                       8                       4                       0    2.52784884810383e-09    7.67053047804096e-09    6.95016450915492e-09
102                      10                       6                5.656854     2.5368738171406e-05    0.000110653157519206    4.52381723863852e-05
103                      10                       6                2.828427    4.97596048005696e-07    2.10792645211377e-06    1.64372401949391e-06
104                      10                       6                       0    1.43752754965779e-07    5.88378855277454e-07    6.68340989396644e-07
105                      12                       4                5.656854    1.86736885325462e-07    2.01384026907367e-06    6.55170442814198e-07
106                      12                       4                2.828427     1.7069690597329e-07    1.73306018684057e-06    1.08441146716656e-06
107                      12                       4                       0    2.06307358359883e-09    2.05408178566455e-08    1.89516684585476e-08
108                      14                       6                5.656854    2.97025620218533e-06    0.000195614759280541     8.1588815446968e-05
109                      14                       6                2.828427    6.63570500340373e-08    3.54597806170205e-06    2.81854163956004e-06
110                      14                       6                       0    2.11590738398124e-08     9.4468908691187e-07    1.09169762074761e-06
111                      16                       4                5.656854   -1.02198354642561e-07    2.24208245115293e-06    7.31483393452172e-07
112                      16                       4                2.828427   -9.50481012558025e-08    1.92163210369032e-06    1.20584468104361e-06
113                      16                       4                       0   -1.16199249373485e-09    2.27619399919373e-08    2.10519650015955e-08
114                      18                       6                5.656854   -2.18931823513523e-05    0.000148865223766054    6.14109300289004e-05
115                      18                       6                2.828427   -4.27846575830228e-07    2.73906944580369e-06    2.15411773623025e-06
116                      18                       6                       0   -1.24080126888926e-07    7.42050346126006e-07    8.49044332970958e-07
117                      20                       4                5.656854   -2.57947135659945e-07     1.0135262357399e-06    3.24652853836391e-07
118                      20                       4                2.828427    -2.3781702728212e-07    9.21243785703485e-07    5.68236289802185e-07
119                      20                       4                       0   -2.88248371159304e-09    1.13019571246169e-08    1.03225076859097e-08
120                      22                       6                5.656854   -1.35551248482512e-05    3.03186699997193e-05    1.19273716744975e-05
121                      22                       6                2.828427   -3.09603154953709e-07    6.80083519260106e-07    5.13590517179305e-07
122                      22                       6                       0   -1.02344967938232e-07    2.20236886985576e-07    2.43857050670599e-07
123                      24                       4                5.656854    -6.3636926492475e-08    1.20679717191393e-07    3.72691207241311e-08
124                      24                       4                2.828427   -6.85712992265017e-08     1.2909320585856e-07     7.7387346372427e-08
125                      24                       4                       0   -8.80635310174698e-10    1.68183350743851e-09    1.51316597541206e-09
126                      26                       6                5.656854   -1.10898011038556e-06    1.35426258236193e-06     5.0989754250137e-07
127                      26                       6                2.828427   -3.43878119576907e-08    4.16503964281542e-08    3.02840485235607e-08
128                      26                       6                       0   -1.43672002491641e-08    1.74728164404276e-08    1.88833999161088e-08
129                      28                       4                5.656854    -3.2873828059515e-09    3.88337196776532e-09    1.17232203093648e-09
130                      28                       4                2.828427     -3.661053564858e-09    4.39067923837168e-09     2.5980713971049e-09
131                      28                       4                       0                       0                       0                       0
132                      30                       6                5.656854   -1.58752117282814e-08    1.94103326845917e-08    7.22874090439103e-09
133                      30                       6                2.828427   -6.02878161897341e-10    7.02012248417465e-10    5.16058750007308e-10
134                      30                       6                       0                       0                       0                       0
135                       0                       8                5.656854    5.88874442811201e-08    4.11378645656964e-08    1.97653380644391e-08
136                       0                       8                2.828427    6.52074079619604e-08    4.53452121006507e-08    4.20953100154872e-08
137                       0                       8                       0    9.16082131921961e-10     6.1642479584371e-10    8.57485466205212e-10
138                       2                      10                5.656854    1.78638696438227e-05     1.0470971223307e-05    7.29109634221709e-06
139                       2                      10                2.828427     4.0785496112658e-07    2.41422658029451e-07    3.18852199730309e-07
140                       2                      10                       0    1.35138790086779e-07     8.0752744593672e-08    1.54470980485513e-07
141                       4                       8                5.656854    3.79337386353921e-06    4.09824087210736e-06    2.03834727371487e-06
142                       4                       8                2.828427    2.65711885298183e-06    2.83399191545531e-06     2.7031288327642e-06
143                       4                       8                       0    2.63358473570499e-08    2.77504685598017e-08    3.86939547856529e-08
144                       6                      10                5.656854    0.000869049695513201    0.000976873360192201    0.000722275669041152
145                       6                      10                2.828427    9.80340386514877e-06    1.06639222863206e-05    1.48246113158754e-05
146                       6                      10                       0    1.78911208640748e-06    1.88978533006799e-06    3.76015811008273e-06
147                       8                       8                5.656854    4.35687967635662e-05    9.63954590637356e-05    5.11980910493059e-05
148                       8                       8                2.828427    1.97865539922009e-05    4.23563814702729e-05    4.26273632931085e-05
149                       8                       8                       0    1.34361425564024e-07    2.77055267944034e-07    4.03091155025961e-07
150                      10                      10                5.656854      0.0033537807416998     0.00988611286228063     0.00822142953723622
151                      10                      10                2.828427    2.62187153852898e-05    7.45304140858659e-05     0.00011368815721114
152                      10                      10                       0    3.52483408263821e-06    9.40372218467752e-06    2.00095495117947e-05
153                      12                       8                5.656854    3.80436124129306e-05    0.000379850294293761    0.000216152071490532
154                      12                       8                2.828427    1.53975748956387e-05    0.000131873161772024    0.000140325286733618
155                      12                       8                       0    9.74691551835814e-08    7.26287584149291e-07     1.1036478366043e-06
156                      14                      10                5.656854    0.000129120626386743      0.0156333917181716      0.0137637230050438
157                      14                      10                2.828427    1.69023914353451e-06    0.000115212389733493    0.000184991315061024
158                      14                      10                       0    3.89123547202913e-07    1.40155853737004e-05    3.10354363830536e-05
159                      16                       8                5.656854   -1.53760245786422e-05    0.000413768585951474    0.000236939145289722
160                      16                       8                2.828427   -7.31525582079209e-06    0.000143795336821217     0.00015393635826091
161                      16                       8                       0    -5.1433059232631e-08    7.91168322363286e-07    1.20895706349298e-06
162                      18                      10                5.656854    -0.00271533035473848      0.0128437486493781      0.0109757795072552
163                      18                      10                2.828427   -2.09817439095431e-05    9.53991542591754e-05    0.000149235872122601
164                      18                      10                       0   -2.82686007635276e-06    1.15852660311852e-05    2.50937250004378e-05
165                      20                       8                5.656854   -5.96916772305156e-05    0.000172205972905359    9.40512944773338e-05
166                      20                       8                2.828427   -2.43481389688283e-05     6.8511179619361e-05    7.03408807857502e-05
167                      20                       8                       0   -1.53454060801665e-07    4.15317152133108e-07    6.13143986563115e-07
168                      22                      10                5.656854    -0.00169327388153945      0.0024730087431034     0.00187010897860252
169                      22                      10                2.828427   -1.65749917097391e-05    2.29410095678404e-05    3.25194171865573e-05
170                      22                      10                       0   -2.68334407664854e-06    3.53949086783468e-06    7.15468850628188e-06
171                      24                       8                5.656854   -9.50439290544875e-06     1.2408432992114e-05    6.24664827345223e-06
172                      24                       8                2.828427    -5.7925462416647e-06    7.38874100345287e-06    7.12477834730424e-06
173                      24                       8                       0   -5.04449889743517e-08    6.28690091956267e-08    8.85574970604799e-08
174                      26                      10                5.656854   -6.68930305704579e-05    4.57313989411601e-05    3.23397513633922e-05
175                      26                      10                2.828427   -1.24378689771234e-06    8.54518240288961e-07    1.14246911405711e-06
176                      26                      10                       0   -3.42411417327857e-07    2.36167686871098e-07    4.55153806896253e-07
177                      28                       8                5.656854   -2.28533000518194e-07    1.72139587300783e-07    8.33966104998036e-08
178                      28                       8                2.828427   -2.26116091515119e-07    1.70224388296847e-07     1.5857302549766e-07
179                      28                       8                       0   -2.97066743105132e-09    2.20652415100946e-09    3.08352836291919e-09
180                      30                      10                5.656854    -4.1710039842058e-07    2.78359018654002e-07    1.85935995861202e-07
181                      30                      10                2.828427   -1.36721160615683e-08     9.5931106907748e-09    1.22982385179834e-08
182                      30                      10                       0   -6.10727462935541e-09    3.62123637854988e-09     7.1928972991611e-09
183                       0                      12                5.656854     7.7834941079567e-07    2.38341639533553e-07     2.5992134506058e-07
184                       0                      12                2.828427    6.98982403762197e-07    2.22778895904024e-07    4.55989226226873e-07
185                       0                      12                       0    8.79797840171287e-09    2.81337748247203e-09    8.34086162007998e-09
186                       2                      14                5.656854    0.000127221321677567    2.00652370938284e-05    5.21601939062934e-05
187                       2                      14                2.828427    2.32159752092564e-06    3.96151226576794e-07     1.8259122740115e-06
188                       2                      14                       0    6.15341981142262e-07    1.11936528882555e-07    7.06927513659862e-07
189                       4                      12                5.656854    0.000125560564741453    5.74409921717331e-05    7.05751888624031e-05
190                       4                      12                2.828427    4.91302450799474e-05    2.34278349051379e-05    5.20050826676741e-05
191                       4                      12                       0    2.96955669380865e-07    1.45736390313748e-07    4.50185891750059e-07
192                       6                      14                5.656854      0.0105432589143365     0.00310810928618336      0.0090446840374445
193                       6                      14                2.828427    8.01546860112055e-05    2.41275753444237e-05    0.000127767435324356
194                       6                      14                       0    9.44228312805188e-06     3.0482759055858e-06     2.0778036147199e-05
195                       8                      12                5.656854     0.00227907148549493     0.00256637755143588     0.00339399928537783
196                       8                      12                2.828427    0.000455742970590174    0.000501575319738388     0.00121344571524815
197                       8                      12                       0    1.60201241853072e-06    1.66773619614505e-06    5.51265399717207e-06
198                      10                      14                5.656854     0.00333050384017236      -0.035803292902188      -0.253461321028171
199                      10                      14                2.828427      0.0001562853982648    0.000158153854511823    0.000982331504969533
200                      10                      14                       0    1.53605930087147e-05    1.41707524465362e-05    0.000107797787235372
201                      12                      12                5.656854     0.00100059607388707     0.00505955395327593     0.00721256769460331