ITEM: TIMESTEP
0
ITEM: NUMBER OF ATOMS
422
ITEM: BOX BOUNDS ff ff ff
0.0000000000000000e+00 2.3200000000000000e+02
0.0000000000000000e+00 2.3200000000000000e+02
0.0000000000000000e+00 2.3200000000000000e+02
ITEM: ATOMS id xu yu zu fx fy fz
1        113.145932193839        115.983520815677              110.456854     0.00299339154267915    -0.00123916033526277    -0.00699225380728655
2        118.827484840071        115.989226241634              110.456854    -0.00552757776224119    -0.00120684357258252    -0.00662825575119026
3        117.402344993917        115.987795112765              110.456854     0.00292140598917722     0.00265468248780361    -0.00733519165235024
4        114.571072038949        115.984951942936              110.456854     0.00249757897483232     0.00269693527258508    -0.00695725756591661
5        116.701075167769        114.749724850164              110.456854     0.00349515109473807     0.00434028530164144     -0.0071952519767805
6        115.274826990867        114.748292608712              110.456854     0.00362931982600777     0.00435207484116861    -0.00694854751430326
7        115.272341865028        117.223022205388              110.456854     0.00359908640170834     0.00279725057322148    -0.00738237957682825
8        116.698590041422        117.224454446583              110.456854     0.00342858745716407     0.00274944061357975    -0.00762449816196084
9        114.517756920757        113.548446241175              110.456854    -0.00342996732814638    -0.00602275978261311    -0.00726109751449282
10        117.460553482731        113.551401403886              110.456854     -0.0134781961265991    -0.00606350867863371    -0.00601614240175354
11        114.512863550773        118.421345651893              110.456854    -0.00336774207844038      -0.011072535199305    -0.00514248635035992
12        117.455660110655        118.424300814179              110.456854     -0.0130671283680819      -0.010767021953086    -0.00394160322105682
13        113.127311260236        113.562444587898              110.456854       0.014174440236349     -0.0074194178566429    -0.00785819015591242
14        113.122448808114        118.404554762274              110.456854       0.014084750515687    -0.00702133280270467    -0.00608002422926684
15        118.850968226168        113.568192293572              110.456854     -0.0287671214491189     -0.0075127224390996    -0.00572398825935481
16        118.846105771496         118.41030247058              110.456854     -0.0282844261386298    -0.00654542978246878    -0.00400732468227451
17        112.426795838139         117.19431994364              110.456854     0.00374400653040805     0.00765450479727272    -0.00672257410254912
18         112.42922905874        114.771279815063              110.456854     0.00370229173313041     0.00109132045361114    -0.00620745562431176
19        119.546621196692        114.778427112272              110.456854      0.0053678920963603      0.0010235604451024    -0.00786397024408229
20        119.544187975028         117.20146724296              110.456854     0.00519142795777061     0.00736944785377388    -0.00836323343636644
21        120.955135022624        114.824435085822              110.456854       0.113335434039597       0.136429858119388     -0.0242378464525014
22        120.952791362251        117.158288229576              110.456854       0.111190869240318     -0.0436394090405151     -0.0295429990392592
23        111.020625673161        114.814458829493              110.456854    -0.00671935288202856       0.137475929345231     0.00333396566166289
24        111.018282013145        117.148311972274              110.456854    -0.00553290744582359     -0.0392657263106367    -0.00228636514217168
25        121.586726460739        115.991997078118              110.456854     -0.0394506432972373     -0.0245937382549304     0.00748876764652785
26        110.386690574472        115.980749978664              110.456854     -0.0192764025380037     -0.0262648357087408    -0.00984995851611043
27        121.609196045824        118.185922140926              110.456854      -0.127210167223566     -0.0588590913664437      0.0341246755008683
28          121.6136022867        113.798121569695              110.456854      -0.133068155817551     -0.0539509375672419      0.0217907420743188
29        110.359814750727        118.174625487296              110.456854    -0.00296795902083519     -0.0670427286464556    -0.00441020705195004
30         110.36422099026         113.78682491673              110.456854   -0.000150441095924272     -0.0534544696490388     -0.0177844454584089
31        112.599866822243        112.615454800093              110.456854     -0.0290232932435872      0.0130779569320706     0.00334602418947575
32        112.593103500599        119.350483321209              110.456854     -0.0285200431580019      0.0257676638413983    -0.00337741221666899
33        119.380313532952        112.622263734631              110.456854      0.0680127914773672      0.0136912996745735    -0.00344125754480591
34        119.373550207142        119.357292260389              110.456854      0.0660062282665424      0.0238863561912134    -0.00988491670783059
35        114.962286572867         112.56896056388              110.456854      0.0123891140203546     0.00753788777888264   -0.000411634226367956
36        114.955425108682        119.401722146141              110.456854      0.0121503290546273      0.0179242759772166    -0.00488226644384512
37        117.017991924022        112.571024909739              110.456854      0.0122372594882398      0.0076414145184652    -0.00166575650417084
38        117.011130457531        119.403786490585              110.456854      0.0114967751827226      0.0175308609919046    -0.00606401083089161
39                     100                     100              105.656854       0.212151150954679       0.213859706052987      -0.975579897671407
40                     100                     100              102.828427       0.432020733478935       0.430590379848317   -0.000402375322126152
41                     100                     100                     100       0.212157967163374       0.213289450746695       0.976287446539507
42                     102                     102              105.656854      -0.344458684026245      -0.347303963698622      -0.278147039217902
43                     102                     102              102.828427     -0.0508989250173027      -0.048646406682396    0.000687247034526094
44                     102                     102                     100      -0.344534807436619       -0.34620694171819        0.27694874901889
45                     104                     100              105.656854      0.0958316886477079       0.959936553225012      -0.808872424090157
46                     104                     100              102.828427     -0.0638612903477634       0.726868977681048   -0.000261889761397555
47                     104                     100                     100      0.0962767372736649       0.959308613853389       0.809316593388015
48                     106                     102              105.656854      -0.149287901569475      -0.514598245139411      -0.381525219986148
49                     106                     102              102.828427       0.142497289121141      0.0662195543729978    0.000294501585525673
50                     106                     102                     100      -0.150419268673892      -0.513558150355475       0.381023581905885
51                     108                     100              105.656854       0.109749856353769        1.06005713571173      -0.801987867172512
52                     108                     100              102.828427      -0.111827881415142       0.639884807835507    0.000315991503149738
53                     108                     100                     100       0.110872920455734        1.06005327253742       0.801403552417275
54                     110                     102              105.656854      -0.143702661251896       -0.58202001813168      -0.373572967693125
55                     110                     102              102.828427        0.14858132216186       0.135010732750622    -0.00103951499874485
56                     110                     102                     100       -0.14605510686774       -0.58280710462254       0.375442237968286
57                     112                     100              105.656854       0.131936405501151        1.10875887031716      -0.810985088274378
58                     112                     100              102.828427      -0.135788959697417        0.58904411839844     0.00123620818560667
59                     112                     100                     100       0.133116287574734        1.11019751501569       0.808770050088533
60                     114                     102              105.656854      -0.164194268330207       -0.61988661379407      -0.360756071644047
61                     114                     102              102.828427       0.169157827879023        0.17591206888327     -0.0025876185736294
62                     114                     102                     100      -0.165579631023216      -0.623438669976425       0.365417996959751
63                     116                     100              105.656854        0.16658861081437         1.1444984932862      -0.821658162682772
64                     116                     100              102.828427      -0.170771755260054       0.551599521601526     0.00172585441422917
65                     116                     100                     100       0.166587335297566        1.14680133895561       0.818574443964182
66                     118                     102              105.656854      -0.209103584094704      -0.652084473107017      -0.347324136893572
67                     118                     102              102.828427       0.213931243700639       0.209157107460248    -0.00258542599652381
68                     118                     102                     100      -0.207713917683233      -0.655630539046478       0.351981963382362
69                     120                     100              105.656854       0.222943166007542        1.18284177307295      -0.835552643147706
70                     120                     100              102.828427       -0.22829959167391       0.512537200004982     0.00123529005339239
71                     120                     100                     100       0.221764216656824        1.18427743056705       0.833339261994839
72                     122                     102              105.656854      -0.288152029510213      -0.688190241790989      -0.330044277645822
73                     122                     102              102.828427        0.29285463512403       0.244574707432202      -0.001038427657445
74                     122                     102                     100      -0.285806305186506      -0.688973432687696       0.331911616087034
75                     124                     100              105.656854         0.3261282583067        1.23670007432631      -0.852186270691113
76                     124                     100              102.828427      -0.322687185118618       0.459500437148734    0.000317139671250031
77                     124                     100                     100       0.325008930740013        1.23669728944256       0.851599928773868
78                     126                     102              105.656854      -0.461473473981681      -0.727397631221874      -0.332092814486647
79                     126                     102              102.828427       0.396917217034839       0.281396967829696    0.000290396676042003
80                     126                     102                     100      -0.460347384580619      -0.726364032164504       0.331598604279981
81                     128                     100              105.656854       0.708198604760263        1.34058336640813      -0.754673319581476
82                     128                     100              102.828427      -0.280809374031831       0.396249490873288   -0.000258658796483013
83                     128                     100                     100       0.707755020737096        1.33995987355005       0.755111816713732
84                     130                     102              105.656854       -1.34062667972716      -0.708477812226699      -0.755586611593516
85                     130                     102              102.828427      -0.395862957148986       0.280698045765085    0.000681566578270048
86                     130                     102                     100       -1.34054995948422       -0.70738835320154       0.754398315389486
87                     100                     104              105.656854       0.958924180123543      0.0996986410993183      -0.808156428827273
88                     100                     104              102.828427       0.727836614193403     -0.0668200355924778     -0.0010691674828826
89                     100                     104                     100       0.958452917144214      0.0983875432182097       0.810033856895463
90                     102                     106              105.656854      -0.513300564827108      -0.156203285020438      -0.383268106358442
91                     102                     106              102.828427      0.0648527307149533       0.147287498016198     0.00201847997153582
92                     102                     106                     100      -0.512339656770762       -0.15350939687304        0.37968218988438
93                     104                     104              105.656854       0.247114489202613       0.252181653247788      -0.388226503830997
94                     104                     104              102.828427      -0.180012034889004      -0.183693490394283    -0.00119517085175276
95                     104                     104                     100       0.247479434650334       0.249979742316234       0.390342147951415
96                     106                     106              105.656854      -0.233062185622359      -0.242826107257108      -0.504981931847829
97                     106                     106              102.828427       0.225598708317893       0.231779949207629     0.00200943853069307
98                     106                     106                     100      -0.234624399563707      -0.238334624227402       0.501096489961828
99                     108                     104              105.656854       0.173732905833156        0.33790796665645      -0.375267851512547
100                     108                     104              102.828427       -0.17794863110681      -0.268213503345533   -3.88476458030224e-05
101                     108                     104                     100       0.176749922595389       0.336475222441491       0.375389756337429
102                     110                     106              105.656854      -0.184338253435414      -0.292234762130183       -0.48957273078877
103                     110                     106              102.828427       0.194362106182815       0.285248002389824    -0.00142561155904448
104                     110                     106                     100       -0.19229421638017       -0.29181296726098       0.491963267789705
105                     112                     104              105.656854       0.168140773856225       0.380529516654594      -0.391577003544935
106                     112                     104              102.828427      -0.175327664147899      -0.315507019159842     0.00293586435018551
107                     112                     104                     100       0.172548782615708       0.384089072406509       0.386187747884459
108                     114                     106              105.656854      -0.190319653874166      -0.313330603558881      -0.466117057446819
109                     114                     106              102.828427       0.199175293551421       0.315158326088863    -0.00706413912795788
110                     114                     106                     100      -0.196024461927235      -0.323924412686271       0.480209223017203
111                     116                     104              105.656854       0.198197557368952       0.408000086775142      -0.407410984488623
112                     116                     104              102.828427      -0.203401494238407      -0.346398313481299     0.00479417828331171
113                     116                     104                     100       0.198188423732814       0.415206472017215       0.398488954941583
114                     118                     106              105.656854      -0.238911839676507      -0.335559375073267      -0.450229827982735
115                     118                     106              102.828427       0.241650467965813       0.338062570014959    -0.00705069512539614
116                     118                     106                     100      -0.233178351811305      -0.346117436714894       0.464291644408016
117                     120                     104              105.656854       0.259274867258671       0.437199758089773       -0.42229507697811
118                     120                     104              102.828427      -0.263667224311343      -0.374012837804337     0.00292883170094766
119                     120                     104                     100       0.254870876219448       0.440740646529459       0.416919537834814
120                     122                     106              105.656854      -0.315901352648826      -0.362224543303885      -0.437804223244551
121                     122                     106              102.828427       0.317584856024613       0.357505415380173    -0.00141701620325895
122                     122                     106                     100      -0.307983434267993      -0.361782269534928       0.440179774644081
123                     124                     104              105.656854       0.367503182068383       0.463210979047765      -0.438592794258451
124                     124                     104              102.828427      -0.361721070840694      -0.397423103515478   -3.62543602200972e-05
125                     124                     104                     100       0.364502377061471       0.461782881741369       0.438708870608343
126                     126                     106              105.656854      -0.466168824396568      -0.367123463596962      -0.441887582357515
127                     126                     106              102.828427       0.400740747296595       0.360020685242241     0.00199595184290641
128                     126                     106                     100      -0.464621081614839      -0.362658500240649       0.438032174933886
129                     128                     104              105.656854       0.728055006410008       0.461676138287945      -0.330376537134633
130                     128                     104              102.828427      -0.282584904333123      -0.396380254617487    -0.00118575462472648
131                     128                     104                     100       0.727691808397019       0.459489007716768       0.332474850881954
132                     130                     106              105.656854       -1.23709018184756      -0.327461963746464      -0.854097720945534
133                     130                     106              102.828427      -0.458400302367705        0.32302825833485     0.00200367199007722
134                     130                     106                     100       -1.23804343406585      -0.324787122986648       0.850539050473036
135                     100                     108              105.656854        1.06223740396894       0.115952920565072      -0.799369826945431
136                     100                     108              102.828427       0.638922775568972      -0.116183779204987    -0.00238799807392566
137                     100                     108                     100        1.06023931391508       0.113705883633982        0.80359630985697
138                     102                     110              105.656854      -0.587501658082904      -0.153875927329668      -0.380015850110702
139                     102                     110              102.828427       0.137037287939169       0.154863590813676     0.00458575136280035
140                     102                     110                     100      -0.583126551529398      -0.149680219130555       0.371538722488067
141                     104                     108              105.656854       0.336562042318216       0.186817739566674      -0.370448323266821
142                     104                     108              102.828427      -0.266212906784826      -0.185704224191762    -0.00389804328078907
143                     104                     108                     100       0.334676120503218        0.18111894071266       0.377887497592515
144                     106                     110              105.656854      -0.291543862837998      -0.209273940917868      -0.504537961220089
145                     106                     110              102.828427       0.281921720937797       0.206070793170779     0.00713350323362752
146                     106                     110                     100      -0.289029938683921      -0.197894042082191        0.48759106411705
147                     108                     108              105.656854       0.223045544819137       0.243276973990995      -0.359898147608943
148                     108                     108              102.828427      -0.230853824938097      -0.241109496039535    -0.00270561943806842
149                     108                     108                     100       0.229574009365134        0.23481818184139       0.366992119227516
150                     110                     110              105.656854      -0.200774903667379      -0.240715204600835      -0.482827821917153
151                     110                     110              102.828427       0.224418665589518       0.239587178612639    0.000461438373951651
152                     110                     110                     100      -0.225538606240972      -0.232092001249269         0.4760548508568
153                     112                     108              105.656854       0.186679483082806       0.261697332608609      -0.392708462585597
154                     112                     108              102.828427      -0.204171685636894      -0.271677274644944     0.00644973883006965
155                     112                     108                     100       0.203981694674436       0.268380910508416       0.379234410306927
156                     114                     110              105.656854      -0.195602763715621      -0.228344189195054      -0.417366118172803
157                     114                     110              102.828427       0.216387719173474       0.253858027757854     -0.0168249079487923
158                     114                     110                     100      -0.216146351488502      -0.251780451413618       0.465507499950005
159                     116                     108              105.656854       0.220233971650276       0.268455973408915      -0.422280755588493
160                     116                     108              102.828427      -0.226098005679678      -0.289411080390096      0.0132719019794211
161                     116                     108                     100       0.220181337406736       0.288795126370087       0.392126600256051
162                     118                     110              105.656854       -0.26723744572562      -0.239431223225134      -0.400193508956343
163                     118                     110              102.828427       0.258993235078295       0.265176426680007     -0.0167676537684389
164                     118                     110                     100      -0.246534287243755      -0.262740793846418       0.448143525750405
165                     120                     108              105.656854       0.288351995940151       0.295378397455051      -0.427427938218714
166                     120                     108              102.828427      -0.284033594493816      -0.306339054383118     0.00641134562220658
167                     120                     108                     100       0.271074130480683       0.301964102629425       0.414050399744156
168                     122                     110              105.656854      -0.335784499247504      -0.274308453801555      -0.426487392757863
169                     122                     110              102.828427        0.32522437542728       0.274148801536513    0.000505575440711754
170                     122                     110                     100      -0.311231445164605      -0.265574458200492       0.419625076574629
171                     124                     108              105.656854       0.373814461067242       0.312879746201854      -0.432272110342052
172                     124                     108              102.828427      -0.366110825325622      -0.313008468521026    -0.00269842968494387
173                     124                     108                     100       0.367355434370392       0.304447061781051       0.439324581312567
174                     126                     110              105.656854      -0.443877516081531       -0.26512490872369      -0.433094144371956
175                     126                     110              102.828427       0.381716067865369       0.263796338619086      0.0070968562472667
176                     126                     110                     100      -0.446408940227164      -0.253805173494975       0.416280379537735
177                     128                     108              105.656854       0.689953959939229       0.290915743670543      -0.325756377966344
178                     128                     108              102.828427      -0.247557048438503      -0.293225526587879    -0.00387137691006626
179                     128                     108                     100       0.691829695090382       0.285256220291183       0.333137200340252
180                     130                     110              105.656854       -1.18197359713323      -0.226226176802638      -0.839979930067011
181                     130                     110              102.828427      -0.511152979160869       0.229616257545472     0.00455411284649518
182                     130                     110                     100       -1.18631697745112        -0.2220578442538       0.831567261152206
183                     100                     112              105.656854        1.11646933295601       0.137387021302736      -0.805486505741864
184                     100                     112              102.828427       0.585006924984709      -0.139398080193813    -0.00407443971613319
185                     100                     112                     100        1.11190992690668       0.135321683731896       0.812797154192406
186                     102                     114              105.656854      -0.633964161301194      -0.169456246414549      -0.372604771282456
187                     102                     114              102.828427       0.181901917124114       0.172256297993998     0.00708620640203524
188                     102                     114                     100      -0.625421514366398      -0.167276618005785       0.359105859817024
189                     104                     112              105.656854        0.39307837298511       0.183208124652157      -0.374765505460931
190                     104                     112              102.828427      -0.318792244702816      -0.183168736309398    -0.00849314125544358
191                     104                     112                     100       0.384230712714556       0.176491582223101       0.392715571871225
192                     106                     114              105.656854      -0.333437001007371      -0.204578513037039      -0.506597708253388
193                     106                     114              102.828427       0.317751126458411        0.20568455337131       0.013209920797583
194                     106                     114                     100      -0.322929456448836       -0.19892745774362       0.470781937347892
195                     108                     112              105.656854       0.258433720555165       0.225089951099432      -0.347454738776886
196                     108                     112              102.828427      -0.264812991777212      -0.218142490095442    -0.00969949038837123
197                     108                     112                     100       0.264032341759395       0.209783330351643       0.385745486434561
198                     110                     114              105.656854      -0.194177853534329      -0.215640372853636      -0.477648164567301
199                     110                     114              102.828427       0.240656786595462       0.226142995733248     0.00350538200685388
200                     110                     114                     100      -0.245735583583465      -0.220006244174782       0.458314271356513
201                     112                     112              105.656854       0.173482081287463       0.225126808693395      -0.418989159019223