ITEM: TIMESTEP
0
ITEM: NUMBER OF ATOMS
422
ITEM: BOX BOUNDS ff ff ff
0.0000000000000000e+00 2.3200000000000000e+02
0.0000000000000000e+00 2.3200000000000000e+02
0.0000000000000000e+00 2.3200000000000000e+02
ITEM: ATOMS id xu yu zu fx fy fz
1        113.145932193839        117.483520815677              108.656854     -0.0334655018687413     -0.0234766856760017       0.102769113559834
2        118.827484840071        117.489226241634              108.656854       0.030739554121274     -0.0238468807218038       0.106894157513769
3        117.402344993917        117.487795112765              108.656854     -0.0266121037553356     -0.0223069884400186       0.129760121334622
4        114.571072038949        117.484951942936              108.656854      0.0316142064597183     -0.0228478917329219       0.132688984288656
5        116.701075167769        116.249724850164              108.656854    0.000844019629821503     0.00164866326528083     0.00564093508378881
6        115.274826990867        116.248292608712              108.656854     0.00693463565445028     0.00151973617839507     0.00614676369909605
7        115.272341865028        118.723022205388              108.656854      0.0262520502207779      0.0149223986537818      0.0424247631921965
8        116.698590041422        118.724454446583              108.656854     -0.0180484088263782      0.0142027836732535      0.0398247671484379
9        114.517756920757        115.048446241175              108.656854      0.0176238090717902      0.0345208830516459      0.0817589733654715
10        117.460553482731        115.051401403886              108.656854     -0.0364992109784428      0.0340590138596949      0.0809453346178192
11        114.512863550773        119.921345651893              108.656854     0.00595586591114343    -0.00818823642147232        0.01437421894976
12        117.455660110655        119.924300814179              108.656854     -0.0237832641933166    -0.00796951375080212      0.0145380301460833
13        113.127311260236        115.062444587898              108.656854     -0.0125793512273399      0.0227945880482922      0.0522561503451444
14        113.122448808114        119.904554762274              108.656854     0.00189872154752279    -0.00434641719129473     0.00428579789346637
15        118.850968226168        115.068192293572              108.656854    -0.00354615266291104      0.0234085823438235      0.0552208850196369
16        118.846105771496         119.91030247058              108.656854     -0.0171007518466889    -0.00376077888496349     0.00681824616697325
17        112.426795838139         118.69431994364              108.656854    -0.00998104351003323      0.0136014319209675      0.0237096850071585
18         112.42922905874        116.271279815063              108.656854     0.00277665308963613    0.000475491726212888     0.00489362146552732
19        119.546621196692        116.278427112272              108.656854     0.00723400714060339    7.75205348624088e-05     0.00374050619728526
20        119.544187975028         118.70146724296              108.656854      0.0203957800920321      0.0135800257002456      0.0237174909906933
21        120.955135022624        116.324435085822              108.656854       0.149319161649528       0.153284281848283      0.0303181528756666
22        120.952791362251        118.658288229576              108.656854        0.12286092260949     -0.0574486385949665      0.0292573265647616
23        111.020625673161        116.314458829493              108.656854     -0.0320033180126101       0.156173270132506      0.0525049741927781
24        111.018282013145        118.648311972274              108.656854    -0.00720589719922179     -0.0493259144993563       0.053265365043946
25        121.586726460739        117.491997078118              108.656854     -0.0650402694622837     -0.0547703267942243       0.100688408747271
26        110.386690574472        117.480749978664              108.656854    -0.00106921958385777     -0.0587087573467269      0.0869710974850449
27        121.609196045824        119.685922140926              108.656854      -0.161314380414723     -0.0362271175814658      0.0300900566289815
28          121.6136022867        115.298121569695              108.656854      -0.170737941718748     0.00128229128723531      0.0538877916509643
29        110.359814750727        119.674625487296              108.656854      0.0170091078596144     -0.0475063852121886    0.000591370515712338
30         110.36422099026         115.28682491673              108.656854      0.0209339953099695   -0.000654000472699499      0.0232348269631918
31        112.599866822243        114.115454800093              108.656854     -0.0183362828253386      0.0111587142194101    -0.00790049658996443
32        112.593103500599        120.850483321209              108.656854     -0.0163915357461767      0.0446418651808925    0.000993732219408945
33        119.380313532952        114.122263734631              108.656854      0.0609411636435298      0.0110718620138667     -0.0137127136649061
34        119.373550207142        120.857292260389              108.656854      0.0559181916462213      0.0418848649089479     -0.0049172709534359
35        114.962286572867         114.06896056388              108.656854     0.00850718302771362     0.00707004077379777    -0.00739683926834761
36        114.955425108682        120.901722146141              108.656854      0.0051631152792331      0.0285668513786738    -0.00774366946949028
37        117.017991924022        114.071024909739              108.656854      0.0183214573800883     0.00703084314209445    -0.00852356829781826
38        117.011130457531        120.903786490585              108.656854      0.0197978133359903      0.0281275555896536    -0.00848653155401695
39                     100                     100              105.656854       0.212126585847327        0.21365926346109      -0.975765420523935
40                     100                     100              102.828427       0.432025483718779       0.430670819339051   -0.000250910395329983
41                     100                     100                     100       0.212158652714599       0.213280947486787       0.976192558195986
42                     102                     102              105.656854      -0.344430155705732       -0.34697109664853      -0.277789515559233
43                     102                     102              102.828427     -0.0508962320221496     -0.0487370959728118    0.000432541131830775
44                     102                     102                     100      -0.344534673382796      -0.346229908115376       0.277078328346904
45                     104                     100              105.656854      0.0959926084096449       0.959650839651853      -0.809040430856443
46                     104                     100              102.828427     -0.0639535558134703        0.72699256531913   -0.000137573847384409
47                     104                     100                     100       0.096311680915854       0.959273265958393       0.809252317832765
48                     106                     102              105.656854      -0.149655665844009      -0.514136729562345      -0.381252171632132
49                     106                     102              102.828427       0.142661168262545      0.0660602115193359    0.000133160295246977
50                     106                     102                     100      -0.150447151562395      -0.513522677552307       0.381079342940885
51                     108                     100              105.656854       0.110229247289109        1.05991269768974      -0.801916533434115
52                     108                     100              102.828427      -0.112061649212507       0.639978813306172    0.000251085318735103
53                     108                     100                     100        0.11094838660554         1.0599860274368       0.801455513788085
54                     110                     102              105.656854      -0.144601068192813      -0.581972360532869      -0.373968361551166
55                     110                     102              102.828427       0.148916291899014       0.134879503276433   -0.000765853350058494
56                     110                     102                     100      -0.146103627151471      -0.582658134282538       0.375295034857819
57                     112                     100              105.656854       0.132468315541157        1.10910446091032      -0.810435746694371
58                     112                     100              102.828427       -0.13603035076675       0.588999430417582    0.000834307303683455
59                     112                     100                     100       0.133187824100088        1.11010781507616       0.808997095862916
60                     114                     102              105.656854      -0.164747151139046      -0.620670239697103      -0.362094189347617
61                     114                     102              102.828427       0.169351486319475       0.175898147741622    -0.00176932695150867
62                     114                     102                     100       -0.16560519874454      -0.623181211402369        0.36505694418738
63                     116                     100              105.656854       0.166587577704664        1.14516297327296      -0.820832509455752
64                     116                     100              102.828427      -0.170771148847825       0.551463149918478     0.00113746264982892
65                     116                     100                     100       0.166586993463663        1.14670442647262        0.81889202395611
66                     118                     102              105.656854      -0.208547620319756      -0.652865221574724      -0.348660518254917
67                     118                     102              102.828427       0.213735907450956       0.209142175107345     -0.0017681542196783
68                     118                     102                     100      -0.207687469205221      -0.655372804416949       0.351621389794907
69                     120                     100              105.656854       0.222411108299047        1.18318536216142      -0.835004005687837
70                     120                     100              102.828427      -0.228057838273875       0.512493569726527    0.000833945257041392
71                     120                     100                     100       0.221692291625231        1.18418722792424       0.833565939948399
72                     122                     102              105.656854      -0.287255943970255      -0.688139626005466      -0.330438898568762
73                     122                     102              102.828427       0.292520051618264       0.244441715773407   -0.000765584826628696
74                     122                     102                     100      -0.285757472581325      -0.688823593475327       0.331765086747449
75                     124                     100              105.656854       0.325650453546417        1.23655501518571      -0.852114322415056
76                     124                     100              102.828427      -0.322454027702551       0.459595310064407    0.000252019676387656
77                     124                     100                     100       0.324933535548596         1.2366293236548       0.851651790080312
78                     126                     102              105.656854       -0.46110788912286      -0.726936618799035      -0.331822399148269
79                     126                     102              102.828427        0.39675428541059       0.281236459681165    0.000130148660562358
80                     126                     102                     100       -0.46031968752285      -0.726327351791216       0.331654359468174
81                     128                     100              105.656854       0.708038442584081        1.34029834885723      -0.754839661404684
82                     128                     100              102.828427      -0.280717594752885       0.396373442200741    -0.00013536062454942
83                     128                     100                     100       0.707720298247572        1.33992385014962       0.755047889352909
84                     130                     102              105.656854       -1.34065524783323      -0.708145867488703      -0.755232032441715
85                     130                     102              102.828427      -0.395865280408995       0.280606639876834    0.000428540711726171
86                     130                     102                     100       -1.34055039545033      -0.707410231429749       0.754527394348936
87                     100                     104              105.656854       0.958716178971326      0.0994845037662666      -0.808652370397064
88                     100                     104              102.828427       0.727898529259755     -0.0668464240814096   -0.000731345173133187
89                     100                     104                     100       0.958444216233312      0.0985046619605293       0.809872321672065
90                     102                     106              105.656854      -0.512936893885162      -0.155976779750171      -0.382201937689224
91                     102                     106              102.828427       0.064802706448014        0.14752399951828     0.00145555866762778
92                     102                     106                     100      -0.512340673166575      -0.153809609924412       0.379852163798939
93                     104                     104              105.656854       0.247103515684729       0.251626933896983      -0.388967944823944
94                     104                     104              102.828427      -0.180031327397932      -0.183645041969959   -0.000773953826463649
95                     104                     104                     100       0.247458962335471       0.250082461198058       0.390192772223041
96                     106                     106              105.656854      -0.233168704872135       -0.24198887784944      -0.503343569866267
97                     106                     106              102.828427       0.225609053903372        0.23196373158396     0.00139474187260915
98                     106                     106                     100      -0.234487496373369      -0.238592196807015       0.501185065850223
99                     108                     104              105.656854       0.174597949672881       0.337198189970248      -0.375623586670426
100                     108                     104              102.828427      -0.178186944287035       -0.26801190571444    8.80565658425085e-05
101                     108                     104                     100       0.176696203130481       0.336408621610452       0.375388908895209
102                     110                     106              105.656854      -0.186220140244015      -0.291259877860658       -0.48971074999358
103                     110                     106              102.828427       0.194447018260282       0.284827421924667    -0.00126418497865619
104                     110                     106                     100      -0.191938966669493      -0.291528887195603       0.491883870318102
105                     112                     104              105.656854       0.169597666699969       0.380807826550875      -0.390056500514545
106                     112                     104              102.828427      -0.175662358666941      -0.315149669551942     0.00216558072399686
107                     112                     104                     100       0.172482834959024       0.383671946050305       0.386452889871077
108                     114                     106              105.656854      -0.191781031676646      -0.313635770188035      -0.470791041138607
109                     114                     106              102.828427       0.199225854582554       0.313754394824637    -0.00558273357682089
110                     114                     106                     100      -0.195797305794913      -0.322830445294075       0.480018385074653
111                     116                     104              105.656854          0.198193082516       0.409141137326143      -0.404553679234057
112                     116                     104              102.828427      -0.203399854136145      -0.345976224834146     0.00344269037989268
113                     116                     104                     100       0.198187865102922       0.414582014510433       0.398899129555551
114                     118                     106              105.656854      -0.237438627454997      -0.335856353351603      -0.454890346030043
115                     118                     106              102.828427       0.241596441342461       0.336659091583075    -0.00557327982912337
116                     118                     106                     100      -0.233404585253993      -0.345024545494711       0.464101702677877
117                     120                     104              105.656854       0.257817986197973       0.437470516111196      -0.420780426045788
118                     120                     104              102.828427      -0.263331340402896       -0.37365344399924     0.00216152765557195
119                     120                     104                     100       0.254935798157315       0.440323223596372       0.417183406264922
120                     122                     106              105.656854      -0.314029172149609      -0.361240440543547      -0.437936772289984
121                     122                     106              102.828427       0.317499012395407        0.35708147497273    -0.00125984405447732
122                     122                     106                     100      -0.308336722673408      -0.361497771741855        0.44010267727712
123                     124                     104              105.656854       0.366643693086299       0.462499636678711      -0.438945741134333
124                     124                     104              102.828427      -0.361483941454397      -0.397218741116976    9.06807737727088e-05
125                     124                     104                     100       0.364555730386617        0.46171466668853       0.438707042150689
126                     126                     106              105.656854      -0.466066669020005      -0.366284894195882      -0.440261924723999
127                     126                     106              102.828427        0.40073193707254       0.360198383187073     0.00138275833687778
128                     126                     106                     100      -0.464757620222327      -0.362912730813172       0.438122529608927
129                     128                     104              105.656854        0.72806691886115       0.461122448097927      -0.331111874427319
130                     128                     104              102.828427       -0.28256657452583      -0.396329592555232   -0.000766868981443393
131                     128                     104                     100       0.727712641322023       0.459589626939461       0.332325486140458
132                     130                     106              105.656854       -1.23745306475312      -0.327234171606797      -0.853040254310906
133                     130                     106              102.828427      -0.458348937089181       0.323260655262225     0.00144362488401811
134                     130                     106                     100       -1.23804333110509      -0.325084198232952       0.850709380429743
135                     100                     108              105.656854        1.06186370554765       0.116202896070851      -0.800438232984463
136                     100                     108              102.828427        0.63887994619758      -0.116675888745879    -0.00185976344186895
137                     100                     108                     100        1.06034544761783       0.114144787048612       0.803475758181737
138                     102                     110              105.656854      -0.587322215477142      -0.155190204467766      -0.377808601341828
139                     102                     110              102.828427       0.137508612895696       0.156221261658409     0.00401742034860733
140                     102                     110                     100      -0.583398778639689      -0.150560567465674       0.371374080238015
141                     104                     108              105.656854       0.336020514104232       0.187060266308973      -0.372913089136451
142                     104                     108              102.828427      -0.266268603407349      -0.186641114582391    -0.00312418927812347
143                     104                     108                     100       0.334651996022326       0.181795185062696       0.377884173808457
144                     106                     110              105.656854       -0.29161913515109      -0.213183335145558      -0.499143917835674
145                     106                     110              102.828427       0.282178147410727       0.208999736544815     0.00706947299233193
146                     106                     110                     100      -0.288694966556247      -0.199137405884023       0.486921463087597
147                     108                     108              105.656854       0.223519250053524       0.242708085016394      -0.363433171820164
148                     108                     108              102.828427      -0.230464339145636      -0.241965870751799    -0.00220765961723185
149                     108                     108                     100       0.228962631962214       0.235221625758943       0.367138613112481
150                     110                     110              105.656854      -0.199141715152675      -0.243007625629357      -0.478590264086814
151                     110                     110              102.828427        0.22133841968699       0.240909883129993    0.000974787518987021
152                     110                     110                     100      -0.223584814392349      -0.232125115889071       0.475807401566717
153                     112                     108              105.656854       0.189044472112488       0.259181795092802      -0.389270957059689
154                     112                     108              102.828427      -0.203163379039506      -0.269775408966318     0.00590745021682107
155                     112                     108                     100       0.202980573841174        0.26729911189921        0.37906359960573
156                     114                     110              105.656854      -0.194033433826388      -0.210066101400928      -0.425920847077275
157                     114                     110              102.828427       0.213675996791226       0.247183177804659     -0.0186051735447094
158                     114                     110                     100      -0.214724058267016      -0.249129659313705        0.46720531456652
159                     116                     108              105.656854       0.220223099751452       0.264616168068733      -0.412575832830277
160                     116                     108              102.828427      -0.226098203703187      -0.285242544752956      0.0120777728850444
161                     116                     108                     100       0.220182380912438       0.286645786072111        0.39161285619265
162                     118                     110              105.656854      -0.268806207174521      -0.221229740100168      -0.408714042636808
163                     118                     110              102.828427       0.261713145682004       0.258525711358331     -0.0185432063094001
164                     118                     110                     100      -0.247961477831297      -0.260098393216571        0.44983728121019
165                     120                     108              105.656854        0.28598315071181       0.292856035781009      -0.424029122176811
166                     120                     108              102.828427      -0.285035609378826      -0.304444003690088     0.00587677833081158
167                     120                     108                     100       0.272072532073071       0.300886750237151       0.413878491745889
168                     122                     110              105.656854      -0.337384577455915      -0.276567627845032      -0.422210105717648
169                     122                     110              102.828427       0.328277290655528       0.275475375012331     0.00100122414561912
170                     122                     110                     100      -0.313174994537831      -0.265614412294405       0.419380712980267
171                     124                     108              105.656854       0.373353384888762       0.312292897037175      -0.435788480131652
172                     124                     108              102.828427      -0.366497658705691      -0.313853052815786    -0.00219416299857039
173                     124                     108                     100       0.367962944976422       0.304848103291332       0.439466055524237
174                     126                     110              105.656854       -0.44382485066831      -0.268967093300742      -0.427732100684379
175                     126                     110              102.828427       0.381463676469047       0.266698368504677     0.00701529813657727
176                     126                     110                     100      -0.446740448593112      -0.255042897299786       0.415621570772488
177                     128                     108              105.656854       0.690497412615826       0.291147755275026      -0.328200849942774
178                     128                     108              102.828427      -0.247505087834553      -0.294150910680943    -0.00309848539217017
179                     128                     108                     100       0.691854554265554       0.285927040593772       0.333130324023414
180                     130                     110              105.656854       -1.18216020067094      -0.227522919200221      -0.837789428290545
181                     130                     110              102.828427      -0.511616158310942       0.230960996774646     0.00398440586530985
182                     130                     110                     100       -1.18604771393505      -0.222932313967509       0.831407806978101
183                     100                     112              105.656854        1.11689131737688       0.138788960718194      -0.806998293578206
184                     100                     112              102.828427       0.584192716880068      -0.140600082299045    -0.00375323086394388
185                     100                     112                     100        1.11244235919943       0.136107325831178       0.813053182935176
186                     102                     114              105.656854      -0.637095744676603      -0.172811453232514      -0.370505232017024
187                     102                     114              102.828427       0.184275851792077        0.17444131188932     0.00777251082589439
188                     102                     114                     100      -0.626388658439687      -0.168409066883838       0.357943449034178
189                     104                     112              105.656854       0.395659237796271       0.188590342859491      -0.378450672220104
190                     104                     112              102.828427      -0.320574439445717      -0.186431578635415     -0.0091661428068903
191                     104                     112                     100       0.384635389357614        0.17797700547549       0.393866588996641
192                     106                     114              105.656854      -0.350990420392418       -0.21954949253712      -0.510519803260881
193                     106                     114              102.828427       0.321228330028182       0.211024743544695      0.0199829639828504
194                     106                     114                     100      -0.322653643535015      -0.200639922460836        0.46761412101775
195                     108                     112              105.656854       0.264390107684388       0.250994122396049      -0.347273671337673
196                     108                     112              102.828427       -0.26340236367381      -0.224239317018332     -0.0144382021478272
197                     108                     112                     100       0.262270961242606       0.211224279390593        0.38766876030583
198                     110                     114              105.656854      -0.156670869156375      -0.268577613910631      -0.595668938921712
199                     110                     114              102.828427       0.228281950438407       0.229408224443619      0.0144545838501008
200                     110                     114                     100      -0.240751050293014      -0.220221054694436       0.456745171764011
201                     112                     112              105.656854       0.145605527865022       0.219495537265715      -0.427385763391808