ITEM: TIMESTEP
0
ITEM: NUMBER OF ATOMS
422
ITEM: BOX BOUNDS ff ff ff
0.0000000000000000e+00 2.3200000000000000e+02
0.0000000000000000e+00 2.3200000000000000e+02
0.0000000000000000e+00 2.3200000000000000e+02
ITEM: ATOMS id xu yu zu fx fy fz
1        113.145932193839        115.983520815677              109.356854     0.00233111809097464    -0.00125764070687899     -0.0167640761288377
2        118.827484840071        115.989226241634              109.356854    -0.00501321106168859    -0.00123858948182289     -0.0163635109940341
3        117.402344993917        115.987795112765              109.356854     0.00326766832826994     0.00282130610656472     -0.0160649741292754
4        114.571072038949        115.984951942936              109.356854     0.00245290288234584     0.00287311902837817     -0.0156896608240396
5        116.701075167769        114.749724850164              109.356854     0.00272895246962859     0.00472032759147517     -0.0136883596563518
6        115.274826990867        114.748292608712              109.356854     0.00480387136705256     0.00477278076235121     -0.0133071057705823
7        115.272341865028        117.223022205388              109.356854     0.00472602305412107     0.00275938510143658      -0.013788287705535
8        116.698590041422        117.224454446583              109.356854     0.00270365461073224     0.00275745103361277     -0.0141815711293651
9        114.517756920757        113.548446241175              109.356854   -0.000468916943033255    -0.00946374255839717    -0.00181471867541845
10        117.460553482731        113.551401403886              109.356854     -0.0174575706641387    -0.00946623261327098   -0.000890493466887148
11        114.512863550773        118.421345651893              109.356854   -0.000393887354456307    -0.00875058546898604    0.000450819876282458
12        117.455660110655        118.424300814179              109.356854     -0.0170719662720085    -0.00844448920522851     0.00116885658724396
13        113.127311260236        113.562444587898              109.356854     0.00964556960126328     -0.0100737269207799    -0.00706277244073543
14        113.122448808114        118.404554762274              109.356854     0.00950236215462033    -0.00532908822808099     -0.0052781361489535
15        118.850968226168        113.568192293572              109.356854     -0.0250903376726647     -0.0101756778489463    -0.00478146034981675
16        118.846105771496         118.41030247058              109.356854     -0.0245545452974903     -0.0047557350293321    -0.00299772516945669
17        112.426795838139         117.19431994364              109.356854      0.0035604949763569     0.00827501463595476     -0.0146971297367182
18         112.42922905874        114.771279815063              109.356854     0.00347477864658724    0.000956702976276341     -0.0141628814770296
19        119.546621196692        114.778427112272              109.356854     0.00616110584754785    0.000909898839567852     -0.0155920715135235
20        119.544187975028         117.20146724296              109.356854     0.00595320191838818     0.00793677608573864     -0.0160724632799902
21        120.955135022624        114.824435085822              109.356854       0.126796981504044       0.129506364432154     -0.0300442584987546
22        120.952791362251        117.158288229576              109.356854       0.124540491040447     -0.0317071573055711     -0.0346700549075812
23        111.020625673161        114.814458829493              109.356854     -0.0128838836826886       0.130714410798446    -0.00520405352204092
24        111.018282013145        117.148311972274              109.356854     -0.0117120872148939     -0.0270810727379226    -0.00995543427659418
25        121.586726460739        115.991997078118              109.356854     -0.0455440280972021      -0.025794841895525    -0.00169916842217671
26        110.386690574472        115.980749978664              109.356854      -0.017677253343485     -0.0274490153949463      -0.017378091401811
27        121.609196045824        118.185922140926              109.356854      -0.141024030599786     -0.0577422227643149      0.0541390877099526
28          121.6136022867        113.798121569695              109.356854      -0.147166606019895     -0.0616274174836236      0.0428327309681098
29        110.359814750727        118.174625487296              109.356854    0.000700738270566575     -0.0666819365396691      0.0194780091732107
30         110.36422099026         113.78682491673              109.356854     0.00376496406431132      -0.061359036692466     0.00690231620994573
31        112.599866822243        112.615454800093              109.356854     -0.0244240959453423      0.0177396503381736     0.00293180406365656
32        112.593103500599        119.350483321209              109.356854     -0.0239213272693424      0.0232965673134761    -0.00335814644724397
33        119.380313532952        112.622263734631              109.356854       0.065660526343802      0.0184066077506449     -0.0034077225879173
34        119.373550207142        119.357292260389              109.356854      0.0635080698004328      0.0213231433522991    -0.00943925961501458
35        114.962286572867         112.56896056388              109.356854      0.0101222019279992      0.0104570550229303    -0.00386959137749546
36        114.955425108682        119.401722146141              109.356854     0.00987617241479377      0.0164483612369856    -0.00807153623215056
37        117.017991924022        112.571024909739              109.356854      0.0158251234190278      0.0105747334177099    -0.00493471254177876
38        117.011130457531        119.403786490585              109.356854      0.0150389485658676      0.0160325437554723     -0.0089990227331776
39                     100                     100              105.656854       0.212161274405669       0.213957390356284       -0.97563509671584
40                     100                     100              102.828427        0.43201877827157       0.430474158451395   -0.000394087947053286
41                     100                     100                     100       0.212145655572304       0.213392057783445       0.976311396262479
42                     102                     102              105.656854       -0.34447660664475      -0.347519466726792      -0.278059400169797
43                     102                     102              102.828427     -0.0509071243131722     -0.0484174488048881     0.00070273992642414
44                     102                     102                     100      -0.344494781643174      -0.346383370383683       0.276882053839924
45                     104                     100              105.656854      0.0957735916084426       0.960060887699075      -0.808904585501013
46                     104                     100              102.828427     -0.0637754059045209       0.726737387381795   -0.000278359067610834
47                     104                     100                     100      0.0961800677193103       0.959408112534171       0.809355189771858
48                     106                     102              105.656854      -0.149113253755001      -0.514851265614102      -0.381502462983448
49                     106                     102              102.828427       0.142271034692017      0.0664436581808591    0.000356841705430141
50                     106                     102                     100      -0.150199823573697      -0.513693713854938       0.380948428200572
51                     108                     100              105.656854       0.109559778889239        1.06007696896895      -0.801940232459325
52                     108                     100              102.828427      -0.111600496567168       0.639879961280153     0.00028047567555967
53                     108                     100                     100       0.110666786414174        1.06003869000746       0.801418635572862
54                     110                     102              105.656854      -0.143231046970892      -0.581881568615398      -0.373711545534338
55                     110                     102              102.828427       0.148092592344819       0.134850900402824    -0.00101018062019395
56                     110                     102                     100      -0.145675155712893      -0.582665489404838       0.375480403211849
57                     112                     100              105.656854       0.131715318264237        1.10847758497803      -0.810822883368196
58                     112                     100              102.828427      -0.135545768721252       0.589342005692416     0.00121710273429515
59                     112                     100                     100       0.132916280990906        1.10996056384848       0.808710197728514
60                     114                     102              105.656854      -0.163893893374637      -0.619046853851405      -0.361047615595042
61                     114                     102              102.828427       0.168866734507679       0.175161151323587    -0.00267685536543538
62                     114                     102                     100       -0.16537065423691      -0.622936469208557       0.365633231735364
63                     116                     100              105.656854       0.166588886370296        1.14402525543895      -0.821438237172413
64                     116                     100              102.828427        -0.1707720233963       0.552080413819943     0.00172591252752769
65                     116                     100                     100       0.166587527796749         1.1464386288806        0.81846736198387
66                     118                     102              105.656854      -0.209404949610446      -0.651246348802335      -0.347615543176759
67                     118                     102              102.828427        0.21422324254512       0.208407467668831    -0.00267437758770544
68                     118                     102                     100      -0.207923521449814      -0.655129085710544        0.35219690460477
69                     120                     100              105.656854       0.223164026019644        1.18256113728656      -0.835390531338147
70                     120                     100              102.828427      -0.228542581139113       0.512834462036709     0.00121612158987718
71                     120                     100                     100       0.221964102951672        1.18404093462825       0.833279508701411
72                     122                     102              105.656854      -0.288621940777243      -0.688052478974196      -0.330182713886188
73                     122                     102              102.828427       0.293341923125927       0.244415671005734    -0.00100911896414791
74                     122                     102                     100      -0.286185389807655      -0.688832507119937        0.33194972437022
75                     124                     100              105.656854       0.326317600188963        1.23671951835871      -0.852138518140082
76                     124                     100              102.828427      -0.322913791286419       0.459495844820372    0.000281736447389056
77                     124                     100                     100       0.325214461842394        1.23668265676367       0.851614847541128
78                     126                     102              105.656854      -0.461647198011358      -0.727648636340331      -0.332070394479046
79                     126                     102              102.828427       0.397142382608736       0.281619630173437    0.000352198035869614
80                     126                     102                     100      -0.460565915193058      -0.726498987366756       0.331524076752874
81                     128                     100              105.656854       0.708256528017526        1.34070668137868      -0.754705086871532
82                     128                     100              102.828427      -0.280894974641922       0.396118856350033   -0.000275007624938234
83                     128                     100                     100       0.707851368941792        1.34005876656368       0.755150082655618
84                     130                     102              105.656854       -1.34060912221847      -0.708691542730976      -0.755499640314707
85                     130                     102              102.828427      -0.395854590869935       0.280925377188175    0.000696776565042478
86                     130                     102                     100       -1.34058990559093      -0.707563766518325       0.754332245684882
87                     100                     104              105.656854        0.95904807355868      0.0999519780597917      -0.808295088832153
88                     100                     104              102.828427       0.727730954624273     -0.0670926687190284    -0.00107840101441938
89                     100                     104                     100       0.958502284143552      0.0986020015909419       0.810120988696692
90                     102                     106              105.656854      -0.513638098489674      -0.156836666904432      -0.383051841659565
91                     102                     106              102.828427      0.0650741786535087       0.147860700838821     0.00215774354176389
92                     102                     106                     100      -0.512398514134283      -0.153883568733045       0.379442263938879
93                     104                     104              105.656854       0.247138056384421       0.252711560163813      -0.388347179245778
94                     104                     104              102.828427      -0.179951191447754      -0.184164066654332    -0.00130634274183104
95                     104                     104                     100       0.247355256577152        0.25027696279764       0.390508879133131
96                     106                     106              105.656854      -0.233004996940776      -0.244298850430197      -0.504960147105748
97                     106                     106              102.828427       0.225289715012845       0.232749202482564     0.00245108481358021
98                     106                     106                     100      -0.234252504129205      -0.238789396243065        0.50072823826826
99                     108                     104              105.656854       0.173138240665809       0.338393526607491      -0.375209765763195
100                     108                     104              102.828427      -0.177322984031044      -0.268529360653238   -0.000192617057458098
101                     108                     104                     100        0.17625654188277       0.336599683505482       0.375491629460817
102                     110                     106              105.656854      -0.182134283893264      -0.292677154696799      -0.489839610849709
103                     110                     106              102.828427       0.192679726491351        0.28535065371055    -0.00128822669202239
104                     110                     106                     100      -0.191278227546873      -0.291733155837808       0.492000471590628
105                     112                     104              105.656854       0.167048802692002       0.379574250680947      -0.391305654501059
106                     112                     104              102.828427      -0.174393547873448      -0.314754544394029     0.00310727607559772
107                     112                     104                     100       0.171946805973954       0.383622142988173       0.385919334230951
108                     114                     106              105.656854      -0.188549614046394      -0.309291676797858      -0.466026767902057
109                     114                     106              102.828427        0.19795929988898       0.312942298244964    -0.00818236634568898
110                     114                     106                     100      -0.195381272941209      -0.322883465326231       0.481104996341581
111                     116                     104              105.656854       0.198200161197464       0.405889853321165      -0.407056667773849
112                     116                     104              102.828427      -0.203403441660867      -0.344861302879836      0.0052479926774537
113                     116                     104                     100       0.198189532031494       0.414351470767462       0.397958681537046
114                     118                     106              105.656854      -0.240691529271985      -0.331536220731061      -0.450142115182184
115                     118                     106              102.828427       0.242872487991332       0.335853941774732    -0.00816509751707183
116                     118                     106                     100       -0.23382472636681      -0.345079498708339       0.465185260255211
117                     120                     104              105.656854       0.260365135794105       0.436250285794944      -0.422023830354522
118                     120                     104              102.828427      -0.264600445793402      -0.373264332101418     0.00309910050755613
119                     120                     104                     100       0.255472637977533       0.440275864313909       0.416652092434696
120                     122                     106              105.656854      -0.318090109260648      -0.362671225813527      -0.438070140388556
121                     122                     106              102.828427       0.319259152823202       0.357612399854541    -0.00127928202457031
122                     122                     106                     100      -0.308996181964859      -0.361705457632402       0.440216007668254
123                     124                     104              105.656854       0.368093739365858       0.463693464009856      -0.438535105910128
124                     124                     104              102.828427      -0.362343247499983      -0.397737896363643   -0.000188832819143883
125                     124                     104                     100       0.364993649724229       0.461907537586434       0.438810063010114
126                     126                     106              105.656854      -0.466224734350221       -0.36858288319227      -0.441863902269606
127                     126                     106              102.828427        0.40104663367519       0.360984234195251     0.00243285418853555
128                     126                     106                     100      -0.464990335751742      -0.363112068204843       0.437666601563879
129                     128                     104              105.656854       0.728031896007209       0.462201417451972      -0.330496569562465
130                     128                     104              102.828427      -0.282645450787668      -0.396847585208098    -0.00129554062362231
131                     128                     104                     100       0.727815286717658       0.459784785438293       0.332640126201736
132                     130                     106              105.656854       -1.23675606222999      -0.328089490808002      -0.853882482164082
133                     130                     106              102.828427      -0.458619990695061       0.323597292129301      0.0021408215571413
134                     130                     106                     100       -1.23798480972761      -0.325159367627632       0.850301371370642
135                     100                     108              105.656854         1.0627692072667       0.116448800597906      -0.799647061465177
136                     100                     108              102.828427        0.63848525791569      -0.116658663541987    -0.00249625324007853
137                     100                     108                     100        1.06046903545423       0.114035991216771       0.803843117985822
138                     102                     110              105.656854      -0.589079629756872      -0.155056898234531      -0.379701288035779
139                     102                     110              102.828427       0.138002433431096       0.155763455562639     0.00515838805018403
140                     102                     110                     100      -0.583474961851358      -0.150182153768177       0.370908030515568
141                     104                     108              105.656854       0.337622930261635        0.18862891907748      -0.370576703763713
142                     104                     108              102.828427      -0.266643496550053      -0.186927489473979    -0.00456344622501127
143                     104                     108                     100       0.334666175187591       0.181728414099137       0.378490483650644
144                     106                     110              105.656854      -0.295155909131724      -0.214988764694384      -0.506552887646165
145                     106                     110              102.828427        0.28238491941199       0.208419219520396     0.00963780250100079
146                     106                     110                     100      -0.288619458001218      -0.198700608748147       0.486306981000903
147                     108                     108              105.656854       0.221940154665562       0.247770337962957      -0.358722382688305
148                     108                     108              102.828427      -0.229452029784011      -0.242840357988713     -0.0040436735439803
149                     108                     108                     100       0.228554502380136       0.235336113876507       0.367608924050942
150                     110                     110              105.656854      -0.188734874350832      -0.249086413999167      -0.487849061549812
151                     110                     110              102.828427       0.219441702415224       0.241204274697151     0.00265623376706868
152                     110                     110                     100      -0.223291793077073      -0.232256545775947       0.475702478440986
153                     112                     108              105.656854       0.179736927894567       0.258648102152699      -0.393554127058113
154                     112                     108              102.828427      -0.200549097346823      -0.270279474607566     0.00759066398243403
155                     112                     108                     100       0.202332373671438        0.26771669082137       0.378445816393644
156                     114                     110              105.656854      -0.185359278054543      -0.207164775200722      -0.398568736961927
157                     114                     110              102.828427       0.212212404004229       0.249861328782148     -0.0225061339117843
158                     114                     110                     100      -0.214558639696433      -0.250398090921171       0.468034759383524
159                     116                     108              105.656854         0.2202567197584       0.257907177671205      -0.425410550517942
160                     116                     108              102.828427      -0.226109032672255      -0.285233909231721      0.0168082357759916
161                     116                     108                     100       0.220185921246367       0.287243471727785        0.39020575981959
162                     118                     110              105.656854      -0.277589131959997      -0.218351691068369      -0.381488954463819
163                     118                     110              102.828427        0.26319864048546       0.261202759660138     -0.0224215919320187
164                     118                     110                     100      -0.248133349772966      -0.261365576418159       0.450661011822975
165                     120                     108              105.656854       0.295276138183846       0.292383117772031      -0.428254559419123
166                     120                     108              102.828427      -0.287651411159421      -0.304961332244357     0.00753871455489037
167                     120                     108                     100       0.272723155760624       0.301307166123614       0.413267965540903
168                     122                     110              105.656854      -0.347642156097616      -0.282727986558268      -0.431509840329827
169                     122                     110              102.828427       0.330163196269068       0.275787467870977     0.00270706598442187
170                     122                     110                     100       -0.31346869718835      -0.265748198753063       0.419265740445745
171                     124                     108              105.656854        0.37489762696156       0.317336642870928      -0.431116567686316
172                     124                     108              102.828427      -0.367497488541033      -0.314735490214382    -0.00402628408494602
173                     124                     108                     100       0.368368080804034       0.304966849371579       0.439939262593301
174                     126                     110              105.656854       -0.44029642182561      -0.270779305305607      -0.435061630812334
175                     126                     110              102.828427       0.381246974481913       0.266134010160301     0.00957466178724024
176                     126                     110                     100      -0.446812632801601      -0.254611867289602       0.415003775281236
177                     128                     108              105.656854       0.688903940866268       0.292708213101071      -0.325887995798398
178                     128                     108              102.828427      -0.247128567348601      -0.294440406067419    -0.00452833902739842
179                     128                     108                     100       0.691838360856983       0.285863464783109       0.333735216067971
180                     130                     110              105.656854       -1.18041241572654      -0.227395769249428      -0.839664240504469
181                     130                     110              102.828427      -0.512111210591819         0.2305101537079     0.00511871765923937
182                     130                     110                     100       -1.18596950594498      -0.222557939932257         0.8309421910542
183                     100                     112              105.656854        1.11776997297122       0.137885217168301      -0.805896641261554
184                     100                     112              102.828427       0.584012184917747      -0.139838092544201    -0.00438463875525449
185                     100                     112                     100        1.11241226563073       0.135603043657606       0.813277538673809
186                     102                     114              105.656854      -0.637235858058284      -0.170102298207752      -0.372335356931629
187                     102                     114              102.828427       0.183764520056048        0.17272512413586     0.00821118386388355
188                     102                     114                     100      -0.626088786719245      -0.167523655038115       0.358068914738403
189                     104                     112              105.656854       0.398130107093229       0.185833058056242      -0.373979753167345
190                     104                     112              102.828427      -0.320646607112129      -0.184589961284811     -0.0106236173752509
191                     104                     112                     100       0.384550366039316       0.177097072272341       0.394112386487955
192                     106                     114              105.656854      -0.345409586105861      -0.207092567037161      -0.514497286623508
193                     106                     114              102.828427       0.319633082021958        0.20688865310276      0.0189466846848118
194                     106                     114                     100      -0.322587660693736      -0.199340969263821       0.468417148096895
195                     108                     112              105.656854       0.267791223531053       0.240244136470337      -0.325309263625848
196                     108                     112              102.828427       -0.26291251519706      -0.220764184930824      -0.016019526129753
197                     108                     112                     100       0.262408388960461       0.210408107673622       0.387615587436455
198                     110                     114              105.656854      -0.155103729005269      -0.201535180756884      -0.516050203334197
199                     110                     114              102.828427       0.231523260445034       0.226215994771641     0.00936848237534505
200                     110                     114                     100      -0.242281485158782      -0.220056728287461        0.45744495056022
201                     112                     112              105.656854       0.136595451869864        0.22647610239105      -0.421189143749634