ITEM: TIMESTEP
0
ITEM: NUMBER OF ATOMS
422
ITEM: BOX BOUNDS ff ff ff
0.0000000000000000e+00 2.3200000000000000e+02
0.0000000000000000e+00 2.3200000000000000e+02
0.0000000000000000e+00 2.3200000000000000e+02
ITEM: ATOMS id xu yu zu fx fy fz
1        113.145932193839        117.883520815677              108.656854     -0.0395456859545852     -0.0072221057349048       0.123338922491244
2        118.827484840071        117.889226241634              108.656854      0.0367184234664689    -0.00701589255150826       0.127733096820256
3        117.402344993917        117.887795112765              108.656854     -0.0319604343263135    -0.00354956586463876       0.154630601038655
4        114.571072038949        117.884951942936              108.656854       0.036844111313061    -0.00375693102613196       0.158291430563556
5        116.701075167769        116.649724850164              108.656854    -0.00439850953527028    -0.00334591624563124      0.0145665741265515
6        115.274826990867        116.648292608712              108.656854      0.0122622588766995    -0.00372492763001184      0.0154852968068538
7        115.272341865028        119.123022205388              108.656854      0.0169057246053692      0.0140725453542816      0.0239268419193909
8        116.698590041422        119.124454446583              108.656854    -0.00901617507496704      0.0133380363020181      0.0222832596853694
9        114.517756920757        115.448446241175              108.656854     0.00996399372199662      0.0220471036536379      0.0369878817599533
10        117.460553482731        115.451401403886              108.656854     -0.0286236883496943      0.0216883736365061      0.0369063683334881
11        114.512863550773        120.321345651893              108.656854     0.00739013920980919     -0.0302070167553672      0.0227037638084122
12        117.455660110655        120.324300814179              108.656854     -0.0251786041439281      -0.029581570647047      0.0228954480135281
13        113.127311260236        115.462444587898              108.656854    -0.00315450995935155      0.0131399980543771      0.0198543577570143
14        113.122448808114        120.304554762274              108.656854    0.000409602560683814     -0.0208947485851115     0.00956559849605099
15        118.850968226168        115.468192293572              108.656854     -0.0128760425425863      0.0134893758170055      0.0222724358296013
16        118.846105771496         120.31030247058              108.656854     -0.0154229275786769     -0.0206965948894978      0.0125395814232827
17        112.426795838139         119.09431994364              108.656854    -0.00402338316204158      0.0129594009038288       0.013751976063658
18         112.42922905874        116.671279815063              108.656854   -0.000862388339286534    -0.00181721677653412     0.00961540964975346
19        119.546621196692        116.678427112272              108.656854      0.0110797986656606    -0.00242555633488769     0.00885725373185814
20        119.544187975028         119.10146724296              108.656854      0.0140109255466805      0.0128595103628828      0.0131591251902155
21        120.955135022624        116.724435085822              108.656854       0.141648998155628       0.161515341751382      0.0286276139146944
22        120.952791362251        119.058288229576              108.656854       0.133012689787707      -0.062120246442729      0.0244152533998047
23        111.020625673161        116.714458829493              108.656854     -0.0247229977962676        0.16496463149626      0.0513161453789671
24        111.018282013145        119.048311972274              108.656854     -0.0180744328041583     -0.0534510722785361       0.047075101132531
25        121.586726460739        117.891997078118              108.656854     -0.0665442826133166     -0.0332539892251502        0.11985992256579
26        110.386690574472        117.880749978664              108.656854    0.000653001462697146     -0.0377049690632111       0.106999390768994
27        121.609196045824        120.085922140926              108.656854      -0.159927780633309     -0.0746461865016699      0.0227019392387723
28          121.6136022867        115.698121569695              108.656854      -0.168307726032482     -0.0267921440710886      0.0197676075937971
29        110.359814750727        120.074625487296              108.656854      0.0165725581920713     -0.0868597422562564    -0.00744865426785664
30         110.36422099026         115.68682491673              108.656854      0.0187818343451965     -0.0292233422307081      -0.011641109818322
31        112.599866822243        114.515454800093              108.656854     -0.0177403215459563     0.00332312814089414    -0.00476778756215901
32        112.593103500599        121.250483321209              108.656854     -0.0174938700776271       0.044159916190991    -0.00731148371269684
33        119.380313532952        114.522263734631              108.656854      0.0603062613995703     0.00314725852193958     -0.0105496860045909
34        119.373550207142        121.257292260389              108.656854      0.0567135083144026      0.0411403154514763      -0.013023999434201
35        114.962286572867         114.46896056388              108.656854      0.0078816488834086     0.00281824464668497    -0.00697211321826946
36        114.955425108682        121.301722146141              108.656854     0.00644610786995513      0.0277394260828383     -0.0102910877402091
37        117.017991924022        114.471024909739              108.656854      0.0189404854578042     0.00270958515462092    -0.00804308785889587
38        117.011130457531        121.303786490585              108.656854      0.0183012130248682      0.0272516033309594      -0.011198496794543
39                     100                     100              105.656854       0.212125687943987       0.213580340986789      -0.975783072812821
40                     100                     100              102.828427       0.432021449894005       0.430732570255546   -0.000224006227743138
41                     100                     100                     100       0.212167068350434       0.213238513336836       0.976165019247181
42                     102                     102              105.656854      -0.344434769187339      -0.346825083948734      -0.277751985084318
43                     102                     102              102.828427      -0.050881789143729     -0.0488426380314469    0.000379694989804215
44                     102                     102                     100      -0.344555641898775      -0.346164870616348       0.277126766948688
45                     104                     100              105.656854      0.0960576547173339       0.959554425326052      -0.809059365340982
46                     104                     100              102.828427     -0.0640118627842666       0.727063148758331    -0.00011102461970976
47                     104                     100                     100      0.0963599484033837       0.959229146380458       0.809228401855961
48                     106                     102              105.656854      -0.149809662964836      -0.513975120833621      -0.381217416277211
49                     106                     102              102.828427       0.142788433881562      0.0659543939335444    9.03113578071325e-05
50                     106                     102                     100      -0.150541639358981      -0.513465795356639       0.381111186813085
51                     108                     100              105.656854       0.110395826921341        1.05989094000494       -0.80191418593881
52                     108                     100              102.828427      -0.112194436786606       0.639991140724697    0.000245248646047735
53                     108                     100                     100       0.111043188461345        1.05998162705545       0.801464791724458
54                     110                     102              105.656854       -0.14493246423142      -0.582034798013305      -0.374003238966788
55                     110                     102              102.828427       0.149157349765629       0.134925460097555   -0.000715733320004005
56                     110                     102                     100       -0.14625673121719      -0.582687740777479       0.375246109743197
57                     112                     100              105.656854       0.132643384939758        1.10927529640137      -0.810385402292508
58                     112                     100              102.828427       -0.13616281012255       0.588877455366672    0.000762603902078085
59                     112                     100                     100       0.133275945001528        1.11018257096257       0.809065291061217
60                     114                     102              105.656854      -0.164944007317556      -0.621100966853686      -0.362234559262866
61                     114                     102              102.828427       0.169488438862635         0.1761714764958    -0.00159049399779635
62                     114                     102                     100      -0.165687085309761      -0.623325548082602       0.364908791971392
63                     116                     100              105.656854       0.166587323703444        1.14545185550933      -0.820753566005078
64                     116                     100              102.828427      -0.170770958917869       0.551261625531623     0.00102784144075758
65                     116                     100                     100       0.166586866470769        1.14682384434352       0.818992509949157
66                     118                     102              105.656854      -0.208349952498161      -0.653295007000342      -0.348800685451691
67                     118                     102              102.828427       0.213598368526791       0.209414914389884    -0.00158955321886147
68                     118                     102                     100      -0.207605203857917      -0.655516825209457       0.351473407003706
69                     120                     100              105.656854       0.222236074090086        1.18335566189888      -0.834953737777575
70                     120                     100              102.828427       -0.22792537598978        0.51237198505875    0.000762342940473472
71                     120                     100                     100       0.221604139466862        1.18426173213689       0.833634046348101
72                     122                     102              105.656854      -0.286925414538017      -0.688201309234879      -0.330473696594158
73                     122                     102              102.828427       0.292279513802015       0.244487080716765    -0.00071558590029428
74                     122                     102                     100      -0.285604607513985      -0.688852790121892       0.331716289158291
75                     124                     100              105.656854       0.325484390221972        1.23653323998152      -0.852111910200641
76                     124                     100              102.828427      -0.322321610554786       0.459607723047437    0.000246111029074963
77                     124                     100                     100       0.324838957558933        1.23662480253274       0.851661108766746
78                     126                     102              105.656854       -0.46095463810357      -0.726775662834216      -0.331787951945246
79                     126                     102              102.828427       0.396627586618287       0.281130897105085    8.76411419692968e-05
80                     126                     102                     100      -0.460225566603437      -0.726270460814063       0.331685990062494
81                     128                     100              105.656854       0.707973632769073        1.34020238199256      -0.754858428245246
82                     128                     100              102.828427      -0.280659497518466       0.396443770769784   -0.000109031662789251
83                     128                     100                     100       0.707672195956945        1.33987981863262       0.755024153030866
84                     130                     102              105.656854       -1.34065059404388      -0.708000630414923        -0.7551948134242
85                     130                     102              102.828427      -0.395879673893318       0.280501544576276    0.000376094342928141
86                     130                     102                     100       -1.34052952700193      -0.707345364143388       0.754575515748956
87                     100                     104              105.656854       0.958642656518646      0.0993372620836472      -0.808702388469067
88                     100                     104              102.828427       0.727942084811059     -0.0667409187207945   -0.000660622878046501
89                     100                     104                     100       0.958427734719661      0.0984404413545974       0.809806842193492
90                     102                     106              105.656854      -0.512778093027744      -0.155678842900367      -0.382076090757627
91                     102                     106              102.828427      0.0647263638456333       0.147337463390495     0.00129874575008678
92                     102                     106                     100      -0.512323865113343      -0.153714032071931       0.379975796090314
93                     104                     104              105.656854       0.247131963100377       0.251334567268398      -0.389056398259282
94                     104                     104              102.828427       -0.18007817955231      -0.183458491995175   -0.000664010061969901
95                     104                     104                     100       0.247510821690303       0.249984539090746       0.390107271274366
96                     106                     106              105.656854      -0.233304215374566      -0.241347823987682      -0.503107958665604
97                     106                     106              102.828427       0.225761225440132       0.231631877217807     0.00115712967363259
98                     106                     106                     100      -0.234614180318741      -0.238455489428613       0.501328294679767
99                     108                     104              105.656854       0.174993603040469       0.336947771598887      -0.375678603910626
100                     108                     104              102.828427      -0.178474619689318      -0.267874694107474    0.000141124743981149
101                     108                     104                     100       0.176879017629033        0.33635011851893       0.375363629614209
102                     110                     106              105.656854      -0.187290529371281      -0.291047319722923       -0.48971238749453
103                     110                     106              102.828427       0.195082747000809       0.284740555676158    -0.00123728102128355
104                     110                     106                     100      -0.192265314960836      -0.291506453557523       0.491836865431521
105                     112                     104              105.656854       0.170206562756905       0.381205259584725      -0.389879877284135
106                     112                     104              102.828427      -0.176052891592319      -0.315374680308606     0.00196075891924974
107                     112                     104                     100       0.172696453754447       0.383777835458066       0.386608692134729
108                     114                     106              105.656854      -0.192584743257197      -0.315022409257382      -0.471493811398372
109                     114                     106              102.828427       0.199666384729817        0.31435404144817    -0.00494703143920443
110                     114                     106                     100      -0.196000205510276      -0.323043723167325       0.479641023509888
111                     116                     104              105.656854       0.198191601566804       0.410039190885552      -0.404205630763862
112                     116                     104              102.828427      -0.203398937117184      -0.346465242190914     0.00305800390011002
113                     116                     104                     100       0.198187370203604       0.414798127576498        0.39917087257909
114                     118                     106              105.656854      -0.236630232940147      -0.337237072281319      -0.455590894288753
115                     118                     106              102.828427       0.241153273672681       0.337256174820032    -0.00493931035551187
116                     118                     106                     100      -0.233200346745373      -0.345236849597364       0.463725225669161
117                     120                     104              105.656854       0.257209477184305       0.437865022042325      -0.420604552041788
118                     120                     104              102.828427       -0.26294085542164      -0.373876763601113     0.00195748195998597
119                     120                     104                     100       0.254722060203323       0.440428268298903       0.417338685025078
120                     122                     106              105.656854      -0.312964417088806      -0.361024831215736      -0.437937798896965
121                     122                     106              102.828427       0.316865781903167       0.356992502324645    -0.00123374375337256
122                     122                     106                     100      -0.308011201810721      -0.361474136497299        0.44005637700513
123                     124                     104              105.656854       0.366250259520322       0.462249655399397      -0.439000329133107
124                     124                     104              102.828427       -0.36119763652629      -0.397081358928678    0.000143431061271713
125                     124                     104                     100       0.364373600781112       0.461655798014092       0.438681825328673
126                     126                     106              105.656854      -0.465932846463779      -0.365647592286699       -0.44002846313177
127                     126                     106              102.828427       0.400581217910556       0.359867532256007     0.00114682100155426
128                     126                     106                     100      -0.464631845960152      -0.362775913014651        0.43826511239496
129                     128                     104              105.656854       0.728038697718243       0.460831741115731      -0.331199552754517
130                     128                     104              102.828427      -0.282520076891949      -0.396143787378977   -0.000657757135606628
131                     128                     104                     100       0.727661119858225       0.459491859524052       0.332240498579758
132                     130                     106              105.656854       -1.23761078716077       -0.32693814822188      -0.852915578474259
133                     130                     106              102.828427      -0.458272910204003       0.323074959119008     0.00128805673651774
134                     130                     106                     100       -1.23806022911094      -0.324988790949018       0.850832244265343
135                     100                     108              105.656854        1.06159781783639       0.116034536346314      -0.800556697505559
136                     100                     108              102.828427       0.639037050762697      -0.116572262542775    -0.00170812637950139
137                     100                     108                     100        1.06027600791271       0.114093921519832       0.803351674371123
138                     102                     110              105.656854      -0.586700914643345      -0.154919535585548      -0.377485180317943
139                     102                     110              102.828427       0.137217652799897       0.156096534316538     0.00367604551479545
140                     102                     110                     100       -0.58330592447172      -0.150520110737802       0.371598718464545
141                     104                     108              105.656854       0.335634948850205       0.186388745593934      -0.373289437128258
142                     104                     108              102.828427      -0.266143376751976      -0.186310618683277    -0.00274806597673401
143                     104                     108                     100       0.334654809934445       0.181666153149603       0.377652800227742
144                     106                     110              105.656854      -0.290581935417074      -0.211493709950248      -0.497723974389662
145                     106                     110              102.828427       0.282051764374611       0.208483270326595     0.00613210424098627
146                     106                     110                     100      -0.288783992643696      -0.199009244472433       0.487311887087184
147                     108                     108              105.656854       0.224200521770369       0.241190918274223      -0.364136557738967
148                     108                     108              102.828427       -0.23096260775525      -0.241428564355314    -0.00172248131679473
149                     108                     108                     100       0.229252766793247       0.235066941187165       0.366944992761183
150                     110                     110              105.656854      -0.203078495187028      -0.240393978182155      -0.477120139812937
151                     110                     110              102.828427       0.222766213935044       0.240331859837981    0.000344419689640921
152                     110                     110                     100      -0.224128346982547      -0.232016875910754       0.475902117668589
153                     112                     108              105.656854       0.191631415857851        0.25998801635251      -0.388488802720359
154                     112                     108              102.828427      -0.204331041039351      -0.270016781545132     0.00535536838451784
155                     112                     108                     100       0.203445111284301       0.267362181424975       0.379356215215231
156                     114                     110              105.656854      -0.197453507370167      -0.215629433888071      -0.432014120075247
157                     114                     110              102.828427       0.214867630048223       0.247773742729189     -0.0166160174111059
158                     114                     110                     100      -0.215110723067421      -0.249208004102978       0.466474605130851
159                     116                     108              105.656854       0.220214143864529        0.26774665342915      -0.410406738379806
160                     116                     108              102.828427      -0.226094244863762      -0.286212712416599      0.0106210956345744
161                     116                     108                     100       0.220180802737339       0.286889663377573       0.392276043229844
162                     118                     110              105.656854      -0.265351385576491      -0.226759316635424      -0.414775613728123
163                     118                     110              102.828427       0.260511410482197       0.259110133869434     -0.0165636234740879
164                     118                     110                     100      -0.247571165054915      -0.260175129345708       0.449109736307691
165                     120                     108              105.656854       0.283400966297849       0.293644197563591      -0.423255924621893
166                     120                     108              102.828427      -0.283868677231693         -0.304678933276     0.00533015359515927
167                     120                     108                     100       0.271607659467897       0.300947671433092       0.414168710242062
168                     122                     110              105.656854      -0.333498247555435      -0.273937933284845      -0.420734759755833
169                     122                     110              102.828427       0.326859861769126       0.274890540630658     0.00036669063887299
170                     122                     110                     100      -0.312633549963973      -0.265503601073667       0.419478421234798
171                     124                     108              105.656854         0.3726818215464       0.310783348714315      -0.436485822172526
172                     124                     108              102.828427      -0.366004300498226      -0.313315601335042    -0.00171124216861161
173                     124                     108                     100       0.367674708104075       0.304692370480245       0.439272445345633
174                     126                     110              105.656854      -0.444856620758934      -0.267291801199274      -0.426329778167638
175                     126                     110              102.828427       0.381592468053868       0.266182647165804      0.0060850323225746
176                     126                     110                     100      -0.446653320702371       -0.25491379419951       0.416010785104239
177                     128                     108              105.656854        0.69088042732544       0.290481293681825      -0.328573181582073
178                     128                     108              102.828427      -0.247630267879429      -0.293821762667579    -0.00272543617853722
179                     128                     108                     100        0.69185232372878        0.28579795497042       0.332900206565883
180                     130                     110              105.656854       -1.18277667988884      -0.227253820762181      -0.837469467355478
181                     130                     110              102.828427      -0.511326483104084        0.23083636227405     0.00364586554458177
182                     130                     110                     100       -1.18614067087307      -0.222891490649285       0.831631180789503
183                     100                     112              105.656854        1.11643579269621       0.138856095052661      -0.807173837028206
184                     100                     112              102.828427       0.584444466562448       -0.14066141358935    -0.00354884164312185
185                     100                     112                     100        1.11233611331144       0.136153908690126       0.812903272998963
186                     102                     114              105.656854      -0.636333251689264      -0.173257973811358      -0.370143627170507
187                     102                     114              102.828427       0.183944835155611       0.174715848119793     0.00743108408709293
188                     102                     114                     100      -0.626285358879446      -0.168553076063495        0.35814393140362
189                     104                     112              105.656854       0.394098799414364       0.188371542564198      -0.379468715889615
190                     104                     112              102.828427      -0.320103663330859      -0.186423305372148    -0.00840984419511259
191                     104                     112                     100       0.384554665441539       0.178007366921264       0.393504458432305
192                     106                     114              105.656854      -0.348211010078804      -0.221459995824824      -0.507632734034239
193                     106                     114              102.828427       0.320861314218689        0.21161526444989       0.018717640592924
194                     106                     114                     100      -0.322682685707292      -0.200822242850996       0.468024164983926
195                     108                     112              105.656854       0.261585635057894       0.246600981529769       -0.35470294264162
196                     108                     112              102.828427       -0.26377062483456      -0.223929787404596     -0.0125326284121638
197                     108                     112                     100       0.262570374677287        0.21119125951679       0.387206992270642
198                     110                     114              105.656854      -0.161836048061101      -0.269583820461961      -0.556209296463107
199                     110                     114              102.828427       0.229842126842422       0.230156109287303      0.0131515776437629
200                     110                     114                     100      -0.241223981595742      -0.220243664425129       0.456884193503403
201                     112                     112              105.656854       0.157075300479169       0.217553487268785      -0.424838818490497